V -t * -v 1.0a5 -a 0
A -t * -n 1 -p 0 -o 0x7fffffff -c 30 -a 1
A -t * -h 1 -m 1073741823 -s 0
c -t * -i 0 -n Yellow
c -t * -i 1 -n Green
c -t * -i 2 -n Orange
n -t * -a 4 -s 4 -S UP -v circle -c black -i black
n -t * -a 0 -s 0 -S UP -v circle -c black -i black
n -t * -a 1 -s 1 -S UP -v circle -c black -i black
n -t * -a 2 -s 2 -S UP -v circle -c black -i black
n -t * -a 3 -s 3 -S UP -v circle -c black -i black
l -t * -s 0 -d 1 -S UP -r 512000 -D 0.0050000000000000001 -c black
l -t * -s 1 -d 2 -S UP -r 512000 -D 0.0050000000000000001 -c black
l -t * -s 2 -d 3 -S UP -r 512000 -D 0.0050000000000000001 -c black
l -t * -s 3 -d 4 -S UP -r 512000 -D 0.0050000000000000001 -c black
l -t * -s 4 -d 0 -S UP -r 512000 -D 0.0050000000000000001 -c black
+ -t 0.000169788487334637 -s 0 -d 1 -p rtProtoDV -e 5 -c 0 -i 0 -a 0 -x {0.1 1.2 -1 ------- null}
- -t 0.000169788487334637 -s 0 -d 1 -p rtProtoDV -e 5 -c 0 -i 0 -a 0 -x {0.1 1.2 -1 ------- null}
h -t 0.000169788487334637 -s 0 -d 1 -p rtProtoDV -e 5 -c 0 -i 0 -a 0 -x {0.1 1.2 -1 ------- null}
+ -t 0.000169788487334637 -s 0 -d 4 -p rtProtoDV -e 5 -c 0 -i 1 -a 0 -x {0.1 4.2 -1 ------- null}
- -t 0.000169788487334637 -s 0 -d 4 -p rtProtoDV -e 5 -c 0 -i 1 -a 0 -x {0.1 4.2 -1 ------- null}
h -t 0.000169788487334637 -s 0 -d 4 -p rtProtoDV -e 5 -c 0 -i 1 -a 0 -x {0.1 4.2 -1 ------- null}
r -t 0.00524791348733464 -s 0 -d 1 -p rtProtoDV -e 5 -c 0 -i 0 -a 0 -x {0.1 1.2 -1 ------- null}
+ -t 0.00524791348733464 -s 1 -d 0 -p rtProtoDV -e 5 -c 0 -i 2 -a 0 -x {1.2 0.1 -1 ------- null}
- -t 0.00524791348733464 -s 1 -d 0 -p rtProtoDV -e 5 -c 0 -i 2 -a 0 -x {1.2 0.1 -1 ------- null}
h -t 0.00524791348733464 -s 1 -d 0 -p rtProtoDV -e 5 -c 0 -i 2 -a 0 -x {1.2 0.1 -1 ------- null}
+ -t 0.00524791348733464 -s 1 -d 2 -p rtProtoDV -e 5 -c 0 -i 3 -a 0 -x {1.2 2.4 -1 ------- null}
- -t 0.00524791348733464 -s 1 -d 2 -p rtProtoDV -e 5 -c 0 -i 3 -a 0 -x {1.2 2.4 -1 ------- null}
h -t 0.00524791348733464 -s 1 -d 2 -p rtProtoDV -e 5 -c 0 -i 3 -a 0 -x {1.2 2.4 -1 ------- null}
r -t 0.00524791348733464 -s 0 -d 4 -p rtProtoDV -e 5 -c 0 -i 1 -a 0 -x {0.1 4.2 -1 ------- null}
+ -t 0.00524791348733464 -s 4 -d 0 -p rtProtoDV -e 5 -c 0 -i 4 -a 0 -x {4.2 0.1 -1 ------- null}
- -t 0.00524791348733464 -s 4 -d 0 -p rtProtoDV -e 5 -c 0 -i 4 -a 0 -x {4.2 0.1 -1 ------- null}
h -t 0.00524791348733464 -s 4 -d 0 -p rtProtoDV -e 5 -c 0 -i 4 -a 0 -x {4.2 0.1 -1 ------- null}
+ -t 0.00524791348733464 -s 4 -d 3 -p rtProtoDV -e 5 -c 0 -i 5 -a 0 -x {4.2 3.2 -1 ------- null}
- -t 0.00524791348733464 -s 4 -d 3 -p rtProtoDV -e 5 -c 0 -i 5 -a 0 -x {4.2 3.2 -1 ------- null}
h -t 0.00524791348733464 -s 4 -d 3 -p rtProtoDV -e 5 -c 0 -i 5 -a 0 -x {4.2 3.2 -1 ------- null}
+ -t 0.00710233021858257 -s 2 -d 1 -p rtProtoDV -e 5 -c 0 -i 6 -a 0 -x {2.4 1.2 -1 ------- null}
- -t 0.00710233021858257 -s 2 -d 1 -p rtProtoDV -e 5 -c 0 -i 6 -a 0 -x {2.4 1.2 -1 ------- null}
h -t 0.00710233021858257 -s 2 -d 1 -p rtProtoDV -e 5 -c 0 -i 6 -a 0 -x {2.4 1.2 -1 ------- null}
+ -t 0.00710233021858257 -s 2 -d 3 -p rtProtoDV -e 5 -c 0 -i 7 -a 0 -x {2.4 3.2 -1 ------- null}
- -t 0.00710233021858257 -s 2 -d 3 -p rtProtoDV -e 5 -c 0 -i 7 -a 0 -x {2.4 3.2 -1 ------- null}
h -t 0.00710233021858257 -s 2 -d 3 -p rtProtoDV -e 5 -c 0 -i 7 -a 0 -x {2.4 3.2 -1 ------- null}
r -t 0.0103260384873346 -s 1 -d 0 -p rtProtoDV -e 5 -c 0 -i 2 -a 0 -x {1.2 0.1 -1 ------- null}
+ -t 0.0103260384873346 -s 0 -d 1 -p rtProtoDV -e 5 -c 0 -i 8 -a 0 -x {0.1 1.2 -1 ------- null}
- -t 0.0103260384873346 -s 0 -d 1 -p rtProtoDV -e 5 -c 0 -i 8 -a 0 -x {0.1 1.2 -1 ------- null}
h -t 0.0103260384873346 -s 0 -d 1 -p rtProtoDV -e 5 -c 0 -i 8 -a 0 -x {0.1 1.2 -1 ------- null}
+ -t 0.0103260384873346 -s 0 -d 4 -p rtProtoDV -e 5 -c 0 -i 9 -a 0 -x {0.1 4.2 -1 ------- null}
- -t 0.0103260384873346 -s 0 -d 4 -p rtProtoDV -e 5 -c 0 -i 9 -a 0 -x {0.1 4.2 -1 ------- null}
h -t 0.0103260384873346 -s 0 -d 4 -p rtProtoDV -e 5 -c 0 -i 9 -a 0 -x {0.1 4.2 -1 ------- null}
r -t 0.0103260384873346 -s 1 -d 2 -p rtProtoDV -e 5 -c 0 -i 3 -a 0 -x {1.2 2.4 -1 ------- null}
+ -t 0.0103260384873346 -s 2 -d 1 -p rtProtoDV -e 5 -c 0 -i 10 -a 0 -x {2.4 1.2 -1 ------- null}
- -t 0.0103260384873346 -s 2 -d 1 -p rtProtoDV -e 5 -c 0 -i 10 -a 0 -x {2.4 1.2 -1 ------- null}
h -t 0.0103260384873346 -s 2 -d 1 -p rtProtoDV -e 5 -c 0 -i 10 -a 0 -x {2.4 1.2 -1 ------- null}
+ -t 0.0103260384873346 -s 2 -d 3 -p rtProtoDV -e 5 -c 0 -i 11 -a 0 -x {2.4 3.2 -1 ------- null}
- -t 0.0103260384873346 -s 2 -d 3 -p rtProtoDV -e 5 -c 0 -i 11 -a 0 -x {2.4 3.2 -1 ------- null}
h -t 0.0103260384873346 -s 2 -d 3 -p rtProtoDV -e 5 -c 0 -i 11 -a 0 -x {2.4 3.2 -1 ------- null}
r -t 0.0103260384873346 -s 4 -d 0 -p rtProtoDV -e 5 -c 0 -i 4 -a 0 -x {4.2 0.1 -1 ------- null}
+ -t 0.0103260384873346 -s 0 -d 1 -p rtProtoDV -e 5 -c 0 -i 12 -a 0 -x {0.1 1.2 -1 ------- null}
+ -t 0.0103260384873346 -s 0 -d 4 -p rtProtoDV -e 5 -c 0 -i 13 -a 0 -x {0.1 4.2 -1 ------- null}
r -t 0.0103260384873346 -s 4 -d 3 -p rtProtoDV -e 5 -c 0 -i 5 -a 0 -x {4.2 3.2 -1 ------- null}
+ -t 0.0103260384873346 -s 3 -d 2 -p rtProtoDV -e 5 -c 0 -i 14 -a 0 -x {3.2 2.4 -1 ------- null}
- -t 0.0103260384873346 -s 3 -d 2 -p rtProtoDV -e 5 -c 0 -i 14 -a 0 -x {3.2 2.4 -1 ------- null}
h -t 0.0103260384873346 -s 3 -d 2 -p rtProtoDV -e 5 -c 0 -i 14 -a 0 -x {3.2 2.4 -1 ------- null}
+ -t 0.0103260384873346 -s 3 -d 4 -p rtProtoDV -e 5 -c 0 -i 15 -a 0 -x {3.2 4.2 -1 ------- null}
- -t 0.0103260384873346 -s 3 -d 4 -p rtProtoDV -e 5 -c 0 -i 15 -a 0 -x {3.2 4.2 -1 ------- null}
h -t 0.0103260384873346 -s 3 -d 4 -p rtProtoDV -e 5 -c 0 -i 15 -a 0 -x {3.2 4.2 -1 ------- null}
- -t 0.0104041634873346 -s 0 -d 1 -p rtProtoDV -e 5 -c 0 -i 12 -a 0 -x {0.1 1.2 -1 ------- null}
h -t 0.0104041634873346 -s 0 -d 1 -p rtProtoDV -e 5 -c 0 -i 12 -a 0 -x {0.1 1.2 -1 ------- null}
- -t 0.0104041634873346 -s 0 -d 4 -p rtProtoDV -e 5 -c 0 -i 13 -a 0 -x {0.1 4.2 -1 ------- null}
h -t 0.0104041634873346 -s 0 -d 4 -p rtProtoDV -e 5 -c 0 -i 13 -a 0 -x {0.1 4.2 -1 ------- null}
r -t 0.0121804552185826 -s 2 -d 1 -p rtProtoDV -e 5 -c 0 -i 6 -a 0 -x {2.4 1.2 -1 ------- null}
+ -t 0.0121804552185826 -s 1 -d 0 -p rtProtoDV -e 5 -c 0 -i 16 -a 0 -x {1.2 0.1 -1 ------- null}
- -t 0.0121804552185826 -s 1 -d 0 -p rtProtoDV -e 5 -c 0 -i 16 -a 0 -x {1.2 0.1 -1 ------- null}
h -t 0.0121804552185826 -s 1 -d 0 -p rtProtoDV -e 5 -c 0 -i 16 -a 0 -x {1.2 0.1 -1 ------- null}
+ -t 0.0121804552185826 -s 1 -d 2 -p rtProtoDV -e 5 -c 0 -i 17 -a 0 -x {1.2 2.4 -1 ------- null}
- -t 0.0121804552185826 -s 1 -d 2 -p rtProtoDV -e 5 -c 0 -i 17 -a 0 -x {1.2 2.4 -1 ------- null}
h -t 0.0121804552185826 -s 1 -d 2 -p rtProtoDV -e 5 -c 0 -i 17 -a 0 -x {1.2 2.4 -1 ------- null}
r -t 0.0121804552185826 -s 2 -d 3 -p rtProtoDV -e 5 -c 0 -i 7 -a 0 -x {2.4 3.2 -1 ------- null}
+ -t 0.0121804552185826 -s 3 -d 2 -p rtProtoDV -e 5 -c 0 -i 18 -a 0 -x {3.2 2.4 -1 ------- null}
- -t 0.0121804552185826 -s 3 -d 2 -p rtProtoDV -e 5 -c 0 -i 18 -a 0 -x {3.2 2.4 -1 ------- null}
h -t 0.0121804552185826 -s 3 -d 2 -p rtProtoDV -e 5 -c 0 -i 18 -a 0 -x {3.2 2.4 -1 ------- null}
+ -t 0.0121804552185826 -s 3 -d 4 -p rtProtoDV -e 5 -c 0 -i 19 -a 0 -x {3.2 4.2 -1 ------- null}
- -t 0.0121804552185826 -s 3 -d 4 -p rtProtoDV -e 5 -c 0 -i 19 -a 0 -x {3.2 4.2 -1 ------- null}
h -t 0.0121804552185826 -s 3 -d 4 -p rtProtoDV -e 5 -c 0 -i 19 -a 0 -x {3.2 4.2 -1 ------- null}
r -t 0.0154041634873346 -s 0 -d 1 -p rtProtoDV -e 5 -c 0 -i 8 -a 0 -x {0.1 1.2 -1 ------- null}
r -t 0.0154041634873346 -s 0 -d 4 -p rtProtoDV -e 5 -c 0 -i 9 -a 0 -x {0.1 4.2 -1 ------- null}
+ -t 0.0154041634873346 -s 4 -d 0 -p rtProtoDV -e 5 -c 0 -i 20 -a 0 -x {4.2 0.1 -1 ------- null}
- -t 0.0154041634873346 -s 4 -d 0 -p rtProtoDV -e 5 -c 0 -i 20 -a 0 -x {4.2 0.1 -1 ------- null}
h -t 0.0154041634873346 -s 4 -d 0 -p rtProtoDV -e 5 -c 0 -i 20 -a 0 -x {4.2 0.1 -1 ------- null}
+ -t 0.0154041634873346 -s 4 -d 3 -p rtProtoDV -e 5 -c 0 -i 21 -a 0 -x {4.2 3.2 -1 ------- null}
- -t 0.0154041634873346 -s 4 -d 3 -p rtProtoDV -e 5 -c 0 -i 21 -a 0 -x {4.2 3.2 -1 ------- null}
h -t 0.0154041634873346 -s 4 -d 3 -p rtProtoDV -e 5 -c 0 -i 21 -a 0 -x {4.2 3.2 -1 ------- null}
r -t 0.0154041634873346 -s 2 -d 1 -p rtProtoDV -e 5 -c 0 -i 10 -a 0 -x {2.4 1.2 -1 ------- null}
r -t 0.0154041634873346 -s 2 -d 3 -p rtProtoDV -e 5 -c 0 -i 11 -a 0 -x {2.4 3.2 -1 ------- null}
r -t 0.0154041634873346 -s 3 -d 2 -p rtProtoDV -e 5 -c 0 -i 14 -a 0 -x {3.2 2.4 -1 ------- null}
+ -t 0.0154041634873346 -s 2 -d 1 -p rtProtoDV -e 5 -c 0 -i 22 -a 0 -x {2.4 1.2 -1 ------- null}
- -t 0.0154041634873346 -s 2 -d 1 -p rtProtoDV -e 5 -c 0 -i 22 -a 0 -x {2.4 1.2 -1 ------- null}
h -t 0.0154041634873346 -s 2 -d 1 -p rtProtoDV -e 5 -c 0 -i 22 -a 0 -x {2.4 1.2 -1 ------- null}
+ -t 0.0154041634873346 -s 2 -d 3 -p rtProtoDV -e 5 -c 0 -i 23 -a 0 -x {2.4 3.2 -1 ------- null}
- -t 0.0154041634873346 -s 2 -d 3 -p rtProtoDV -e 5 -c 0 -i 23 -a 0 -x {2.4 3.2 -1 ------- null}
h -t 0.0154041634873346 -s 2 -d 3 -p rtProtoDV -e 5 -c 0 -i 23 -a 0 -x {2.4 3.2 -1 ------- null}
r -t 0.0154041634873346 -s 3 -d 4 -p rtProtoDV -e 5 -c 0 -i 15 -a 0 -x {3.2 4.2 -1 ------- null}
+ -t 0.0154041634873346 -s 4 -d 0 -p rtProtoDV -e 5 -c 0 -i 24 -a 0 -x {4.2 0.1 -1 ------- null}
+ -t 0.0154041634873346 -s 4 -d 3 -p rtProtoDV -e 5 -c 0 -i 25 -a 0 -x {4.2 3.2 -1 ------- null}
- -t 0.0154822884873346 -s 4 -d 0 -p rtProtoDV -e 5 -c 0 -i 24 -a 0 -x {4.2 0.1 -1 ------- null}
h -t 0.0154822884873346 -s 4 -d 0 -p rtProtoDV -e 5 -c 0 -i 24 -a 0 -x {4.2 0.1 -1 ------- null}
- -t 0.0154822884873346 -s 4 -d 3 -p rtProtoDV -e 5 -c 0 -i 25 -a 0 -x {4.2 3.2 -1 ------- null}
h -t 0.0154822884873346 -s 4 -d 3 -p rtProtoDV -e 5 -c 0 -i 25 -a 0 -x {4.2 3.2 -1 ------- null}
r -t 0.0154822884873346 -s 0 -d 1 -p rtProtoDV -e 5 -c 0 -i 12 -a 0 -x {0.1 1.2 -1 ------- null}
r -t 0.0154822884873346 -s 0 -d 4 -p rtProtoDV -e 5 -c 0 -i 13 -a 0 -x {0.1 4.2 -1 ------- null}
r -t 0.0172585802185826 -s 1 -d 0 -p rtProtoDV -e 5 -c 0 -i 16 -a 0 -x {1.2 0.1 -1 ------- null}
r -t 0.0172585802185826 -s 1 -d 2 -p rtProtoDV -e 5 -c 0 -i 17 -a 0 -x {1.2 2.4 -1 ------- null}
r -t 0.0172585802185826 -s 3 -d 2 -p rtProtoDV -e 5 -c 0 -i 18 -a 0 -x {3.2 2.4 -1 ------- null}
r -t 0.0172585802185826 -s 3 -d 4 -p rtProtoDV -e 5 -c 0 -i 19 -a 0 -x {3.2 4.2 -1 ------- null}
r -t 0.0204822884873346 -s 4 -d 0 -p rtProtoDV -e 5 -c 0 -i 20 -a 0 -x {4.2 0.1 -1 ------- null}
r -t 0.0204822884873346 -s 4 -d 3 -p rtProtoDV -e 5 -c 0 -i 21 -a 0 -x {4.2 3.2 -1 ------- null}
r -t 0.0204822884873346 -s 2 -d 1 -p rtProtoDV -e 5 -c 0 -i 22 -a 0 -x {2.4 1.2 -1 ------- null}
r -t 0.0204822884873346 -s 2 -d 3 -p rtProtoDV -e 5 -c 0 -i 23 -a 0 -x {2.4 3.2 -1 ------- null}
r -t 0.0205604134873346 -s 4 -d 0 -p rtProtoDV -e 5 -c 0 -i 24 -a 0 -x {4.2 0.1 -1 ------- null}
r -t 0.0205604134873346 -s 4 -d 3 -p rtProtoDV -e 5 -c 0 -i 25 -a 0 -x {4.2 3.2 -1 ------- null}
+ -t 0.04406133552271 -s 3 -d 2 -p rtProtoDV -e 5 -c 0 -i 26 -a 0 -x {3.2 2.4 -1 ------- null}
- -t 0.04406133552271 -s 3 -d 2 -p rtProtoDV -e 5 -c 0 -i 26 -a 0 -x {3.2 2.4 -1 ------- null}
h -t 0.04406133552271 -s 3 -d 2 -p rtProtoDV -e 5 -c 0 -i 26 -a 0 -x {3.2 2.4 -1 ------- null}
+ -t 0.04406133552271 -s 3 -d 4 -p rtProtoDV -e 5 -c 0 -i 27 -a 0 -x {3.2 4.2 -1 ------- null}
- -t 0.04406133552271 -s 3 -d 4 -p rtProtoDV -e 5 -c 0 -i 27 -a 0 -x {3.2 4.2 -1 ------- null}
h -t 0.04406133552271 -s 3 -d 4 -p rtProtoDV -e 5 -c 0 -i 27 -a 0 -x {3.2 4.2 -1 ------- null}
r -t 0.04913946052271 -s 3 -d 2 -p rtProtoDV -e 5 -c 0 -i 26 -a 0 -x {3.2 2.4 -1 ------- null}
r -t 0.04913946052271 -s 3 -d 4 -p rtProtoDV -e 5 -c 0 -i 27 -a 0 -x {3.2 4.2 -1 ------- null}
+ -t 0.1 -s 1 -d 2 -p tcp -e 40 -c 0 -i 28 -a 0 -x {1.0 2.0 0 ------- null}
- -t 0.1 -s 1 -d 2 -p tcp -e 40 -c 0 -i 28 -a 0 -x {1.0 2.0 0 ------- null}
h -t 0.1 -s 1 -d 2 -p tcp -e 40 -c 0 -i 28 -a 0 -x {1.0 2.0 -1 ------- null}
+ -t 0.1 -s 2 -d 3 -p tcp -e 40 -c 1 -i 29 -a 1 -x {2.1 3.0 0 ------- null}
- -t 0.1 -s 2 -d 3 -p tcp -e 40 -c 1 -i 29 -a 1 -x {2.1 3.0 0 ------- null}
h -t 0.1 -s 2 -d 3 -p tcp -e 40 -c 1 -i 29 -a 1 -x {2.1 3.0 -1 ------- null}
+ -t 0.1 -s 2 -d 3 -p tcp -e 40 -c 2 -i 30 -a 2 -x {2.2 4.0 0 ------- null}
- -t 0.100625 -s 2 -d 3 -p tcp -e 40 -c 2 -i 30 -a 2 -x {2.2 4.0 0 ------- null}
h -t 0.100625 -s 2 -d 3 -p tcp -e 40 -c 2 -i 30 -a 2 -x {2.2 4.0 -1 ------- null}
r -t 0.105625 -s 1 -d 2 -p tcp -e 40 -c 0 -i 28 -a 0 -x {1.0 2.0 0 ------- null}
+ -t 0.105625 -s 2 -d 1 -p ack -e 40 -c 0 -i 31 -a 0 -x {2.0 1.0 0 ------- null}
- -t 0.105625 -s 2 -d 1 -p ack -e 40 -c 0 -i 31 -a 0 -x {2.0 1.0 0 ------- null}
h -t 0.105625 -s 2 -d 1 -p ack -e 40 -c 0 -i 31 -a 0 -x {2.0 1.0 -1 ------- null}
r -t 0.105625 -s 2 -d 3 -p tcp -e 40 -c 1 -i 29 -a 1 -x {2.1 3.0 0 ------- null}
+ -t 0.105625 -s 3 -d 2 -p ack -e 40 -c 1 -i 32 -a 1 -x {3.0 2.1 0 ------- null}
- -t 0.105625 -s 3 -d 2 -p ack -e 40 -c 1 -i 32 -a 1 -x {3.0 2.1 0 ------- null}
h -t 0.105625 -s 3 -d 2 -p ack -e 40 -c 1 -i 32 -a 1 -x {3.0 2.1 -1 ------- null}
r -t 0.10625 -s 2 -d 3 -p tcp -e 40 -c 2 -i 30 -a 2 -x {2.2 4.0 0 ------- null}
+ -t 0.10625 -s 3 -d 4 -p tcp -e 40 -c 2 -i 30 -a 2 -x {2.2 4.0 0 ------- null}
- -t 0.10625 -s 3 -d 4 -p tcp -e 40 -c 2 -i 30 -a 2 -x {2.2 4.0 0 ------- null}
h -t 0.10625 -s 3 -d 4 -p tcp -e 40 -c 2 -i 30 -a 2 -x {2.2 4.0 -1 ------- null}
r -t 0.11125 -s 2 -d 1 -p ack -e 40 -c 0 -i 31 -a 0 -x {2.0 1.0 0 ------- null}
+ -t 0.11125 -s 1 -d 2 -p tcp -e 1040 -c 0 -i 33 -a 0 -x {1.0 2.0 1 ------- null}
- -t 0.11125 -s 1 -d 2 -p tcp -e 1040 -c 0 -i 33 -a 0 -x {1.0 2.0 1 ------- null}
h -t 0.11125 -s 1 -d 2 -p tcp -e 1040 -c 0 -i 33 -a 0 -x {1.0 2.0 -1 ------- null}
+ -t 0.11125 -s 1 -d 2 -p tcp -e 1040 -c 0 -i 34 -a 0 -x {1.0 2.0 2 ------- null}
r -t 0.11125 -s 3 -d 2 -p ack -e 40 -c 1 -i 32 -a 1 -x {3.0 2.1 0 ------- null}
+ -t 0.11125 -s 2 -d 3 -p tcp -e 1040 -c 1 -i 35 -a 1 -x {2.1 3.0 1 ------- null}
- -t 0.11125 -s 2 -d 3 -p tcp -e 1040 -c 1 -i 35 -a 1 -x {2.1 3.0 1 ------- null}
h -t 0.11125 -s 2 -d 3 -p tcp -e 1040 -c 1 -i 35 -a 1 -x {2.1 3.0 -1 ------- null}
+ -t 0.11125 -s 2 -d 3 -p tcp -e 1040 -c 1 -i 36 -a 1 -x {2.1 3.0 2 ------- null}
r -t 0.111875 -s 3 -d 4 -p tcp -e 40 -c 2 -i 30 -a 2 -x {2.2 4.0 0 ------- null}
+ -t 0.111875 -s 4 -d 3 -p ack -e 40 -c 2 -i 37 -a 2 -x {4.0 2.2 0 ------- null}
- -t 0.111875 -s 4 -d 3 -p ack -e 40 -c 2 -i 37 -a 2 -x {4.0 2.2 0 ------- null}
h -t 0.111875 -s 4 -d 3 -p ack -e 40 -c 2 -i 37 -a 2 -x {4.0 2.2 -1 ------- null}
r -t 0.1175 -s 4 -d 3 -p ack -e 40 -c 2 -i 37 -a 2 -x {4.0 2.2 0 ------- null}
+ -t 0.1175 -s 3 -d 2 -p ack -e 40 -c 2 -i 37 -a 2 -x {4.0 2.2 0 ------- null}
- -t 0.1175 -s 3 -d 2 -p ack -e 40 -c 2 -i 37 -a 2 -x {4.0 2.2 0 ------- null}
h -t 0.1175 -s 3 -d 2 -p ack -e 40 -c 2 -i 37 -a 2 -x {4.0 2.2 -1 ------- null}
r -t 0.123125 -s 3 -d 2 -p ack -e 40 -c 2 -i 37 -a 2 -x {4.0 2.2 0 ------- null}
+ -t 0.123125 -s 2 -d 3 -p tcp -e 1040 -c 2 -i 38 -a 2 -x {2.2 4.0 1 ------- null}
+ -t 0.123125 -s 2 -d 3 -p tcp -e 1040 -c 2 -i 39 -a 2 -x {2.2 4.0 2 ------- null}
- -t 0.1275 -s 1 -d 2 -p tcp -e 1040 -c 0 -i 34 -a 0 -x {1.0 2.0 2 ------- null}
h -t 0.1275 -s 1 -d 2 -p tcp -e 1040 -c 0 -i 34 -a 0 -x {1.0 2.0 -1 ------- null}
- -t 0.1275 -s 2 -d 3 -p tcp -e 1040 -c 1 -i 36 -a 1 -x {2.1 3.0 2 ------- null}
h -t 0.1275 -s 2 -d 3 -p tcp -e 1040 -c 1 -i 36 -a 1 -x {2.1 3.0 -1 ------- null}
r -t 0.1325 -s 1 -d 2 -p tcp -e 1040 -c 0 -i 33 -a 0 -x {1.0 2.0 1 ------- null}
+ -t 0.1325 -s 2 -d 1 -p ack -e 40 -c 0 -i 40 -a 0 -x {2.0 1.0 1 ------- null}
- -t 0.1325 -s 2 -d 1 -p ack -e 40 -c 0 -i 40 -a 0 -x {2.0 1.0 1 ------- null}
h -t 0.1325 -s 2 -d 1 -p ack -e 40 -c 0 -i 40 -a 0 -x {2.0 1.0 -1 ------- null}
r -t 0.1325 -s 2 -d 3 -p tcp -e 1040 -c 1 -i 35 -a 1 -x {2.1 3.0 1 ------- null}
+ -t 0.1325 -s 3 -d 2 -p ack -e 40 -c 1 -i 41 -a 1 -x {3.0 2.1 1 ------- null}
- -t 0.1325 -s 3 -d 2 -p ack -e 40 -c 1 -i 41 -a 1 -x {3.0 2.1 1 ------- null}
h -t 0.1325 -s 3 -d 2 -p ack -e 40 -c 1 -i 41 -a 1 -x {3.0 2.1 -1 ------- null}
r -t 0.138125 -s 2 -d 1 -p ack -e 40 -c 0 -i 40 -a 0 -x {2.0 1.0 1 ------- null}
+ -t 0.138125 -s 1 -d 2 -p tcp -e 1040 -c 0 -i 42 -a 0 -x {1.0 2.0 3 ------- null}
+ -t 0.138125 -s 1 -d 2 -p tcp -e 1040 -c 0 -i 43 -a 0 -x {1.0 2.0 4 ------- null}
r -t 0.138125 -s 3 -d 2 -p ack -e 40 -c 1 -i 41 -a 1 -x {3.0 2.1 1 ------- null}
+ -t 0.138125 -s 2 -d 3 -p tcp -e 1040 -c 1 -i 44 -a 1 -x {2.1 3.0 3 ------- null}
+ -t 0.138125 -s 2 -d 3 -p tcp -e 1040 -c 1 -i 45 -a 1 -x {2.1 3.0 4 ------- null}
- -t 0.14375 -s 1 -d 2 -p tcp -e 1040 -c 0 -i 42 -a 0 -x {1.0 2.0 3 ------- null}
h -t 0.14375 -s 1 -d 2 -p tcp -e 1040 -c 0 -i 42 -a 0 -x {1.0 2.0 -1 ------- null}
- -t 0.14375 -s 2 -d 3 -p tcp -e 1040 -c 2 -i 38 -a 2 -x {2.2 4.0 1 ------- null}
h -t 0.14375 -s 2 -d 3 -p tcp -e 1040 -c 2 -i 38 -a 2 -x {2.2 4.0 -1 ------- null}
r -t 0.14875 -s 1 -d 2 -p tcp -e 1040 -c 0 -i 34 -a 0 -x {1.0 2.0 2 ------- null}
+ -t 0.14875 -s 2 -d 1 -p ack -e 40 -c 0 -i 46 -a 0 -x {2.0 1.0 2 ------- null}
- -t 0.14875 -s 2 -d 1 -p ack -e 40 -c 0 -i 46 -a 0 -x {2.0 1.0 2 ------- null}
h -t 0.14875 -s 2 -d 1 -p ack -e 40 -c 0 -i 46 -a 0 -x {2.0 1.0 -1 ------- null}
r -t 0.14875 -s 2 -d 3 -p tcp -e 1040 -c 1 -i 36 -a 1 -x {2.1 3.0 2 ------- null}
+ -t 0.14875 -s 3 -d 2 -p ack -e 40 -c 1 -i 47 -a 1 -x {3.0 2.1 2 ------- null}
- -t 0.14875 -s 3 -d 2 -p ack -e 40 -c 1 -i 47 -a 1 -x {3.0 2.1 2 ------- null}
h -t 0.14875 -s 3 -d 2 -p ack -e 40 -c 1 -i 47 -a 1 -x {3.0 2.1 -1 ------- null}
r -t 0.154375 -s 2 -d 1 -p ack -e 40 -c 0 -i 46 -a 0 -x {2.0 1.0 2 ------- null}
+ -t 0.154375 -s 1 -d 2 -p tcp -e 1040 -c 0 -i 48 -a 0 -x {1.0 2.0 5 ------- null}
+ -t 0.154375 -s 1 -d 2 -p tcp -e 1040 -c 0 -i 49 -a 0 -x {1.0 2.0 6 ------- null}
r -t 0.154375 -s 3 -d 2 -p ack -e 40 -c 1 -i 47 -a 1 -x {3.0 2.1 2 ------- null}
+ -t 0.154375 -s 2 -d 3 -p tcp -e 1040 -c 1 -i 50 -a 1 -x {2.1 3.0 5 ------- null}
+ -t 0.154375 -s 2 -d 3 -p tcp -e 1040 -c 1 -i 51 -a 1 -x {2.1 3.0 6 ------- null}
- -t 0.16 -s 1 -d 2 -p tcp -e 1040 -c 0 -i 43 -a 0 -x {1.0 2.0 4 ------- null}
h -t 0.16 -s 1 -d 2 -p tcp -e 1040 -c 0 -i 43 -a 0 -x {1.0 2.0 -1 ------- null}
- -t 0.16 -s 2 -d 3 -p tcp -e 1040 -c 2 -i 39 -a 2 -x {2.2 4.0 2 ------- null}
h -t 0.16 -s 2 -d 3 -p tcp -e 1040 -c 2 -i 39 -a 2 -x {2.2 4.0 -1 ------- null}
r -t 0.165 -s 1 -d 2 -p tcp -e 1040 -c 0 -i 42 -a 0 -x {1.0 2.0 3 ------- null}
+ -t 0.165 -s 2 -d 1 -p ack -e 40 -c 0 -i 52 -a 0 -x {2.0 1.0 3 ------- null}
- -t 0.165 -s 2 -d 1 -p ack -e 40 -c 0 -i 52 -a 0 -x {2.0 1.0 3 ------- null}
h -t 0.165 -s 2 -d 1 -p ack -e 40 -c 0 -i 52 -a 0 -x {2.0 1.0 -1 ------- null}
r -t 0.165 -s 2 -d 3 -p tcp -e 1040 -c 2 -i 38 -a 2 -x {2.2 4.0 1 ------- null}
+ -t 0.165 -s 3 -d 4 -p tcp -e 1040 -c 2 -i 38 -a 2 -x {2.2 4.0 1 ------- null}
- -t 0.165 -s 3 -d 4 -p tcp -e 1040 -c 2 -i 38 -a 2 -x {2.2 4.0 1 ------- null}
h -t 0.165 -s 3 -d 4 -p tcp -e 1040 -c 2 -i 38 -a 2 -x {2.2 4.0 -1 ------- null}
r -t 0.170625 -s 2 -d 1 -p ack -e 40 -c 0 -i 52 -a 0 -x {2.0 1.0 3 ------- null}
+ -t 0.170625 -s 1 -d 2 -p tcp -e 1040 -c 0 -i 53 -a 0 -x {1.0 2.0 7 ------- null}
+ -t 0.170625 -s 1 -d 2 -p tcp -e 1040 -c 0 -i 54 -a 0 -x {1.0 2.0 8 ------- null}
- -t 0.17625 -s 1 -d 2 -p tcp -e 1040 -c 0 -i 48 -a 0 -x {1.0 2.0 5 ------- null}
h -t 0.17625 -s 1 -d 2 -p tcp -e 1040 -c 0 -i 48 -a 0 -x {1.0 2.0 -1 ------- null}
- -t 0.17625 -s 2 -d 3 -p tcp -e 1040 -c 1 -i 44 -a 1 -x {2.1 3.0 3 ------- null}
h -t 0.17625 -s 2 -d 3 -p tcp -e 1040 -c 1 -i 44 -a 1 -x {2.1 3.0 -1 ------- null}
r -t 0.18125 -s 1 -d 2 -p tcp -e 1040 -c 0 -i 43 -a 0 -x {1.0 2.0 4 ------- null}
+ -t 0.18125 -s 2 -d 1 -p ack -e 40 -c 0 -i 55 -a 0 -x {2.0 1.0 4 ------- null}
- -t 0.18125 -s 2 -d 1 -p ack -e 40 -c 0 -i 55 -a 0 -x {2.0 1.0 4 ------- null}
h -t 0.18125 -s 2 -d 1 -p ack -e 40 -c 0 -i 55 -a 0 -x {2.0 1.0 -1 ------- null}
r -t 0.18125 -s 2 -d 3 -p tcp -e 1040 -c 2 -i 39 -a 2 -x {2.2 4.0 2 ------- null}
+ -t 0.18125 -s 3 -d 4 -p tcp -e 1040 -c 2 -i 39 -a 2 -x {2.2 4.0 2 ------- null}
- -t 0.18125 -s 3 -d 4 -p tcp -e 1040 -c 2 -i 39 -a 2 -x {2.2 4.0 2 ------- null}
h -t 0.18125 -s 3 -d 4 -p tcp -e 1040 -c 2 -i 39 -a 2 -x {2.2 4.0 -1 ------- null}
r -t 0.18625 -s 3 -d 4 -p tcp -e 1040 -c 2 -i 38 -a 2 -x {2.2 4.0 1 ------- null}
+ -t 0.18625 -s 4 -d 3 -p ack -e 40 -c 2 -i 56 -a 2 -x {4.0 2.2 1 ------- null}
- -t 0.18625 -s 4 -d 3 -p ack -e 40 -c 2 -i 56 -a 2 -x {4.0 2.2 1 ------- null}
h -t 0.18625 -s 4 -d 3 -p ack -e 40 -c 2 -i 56 -a 2 -x {4.0 2.2 -1 ------- null}
r -t 0.186875 -s 2 -d 1 -p ack -e 40 -c 0 -i 55 -a 0 -x {2.0 1.0 4 ------- null}
+ -t 0.186875 -s 1 -d 2 -p tcp -e 1040 -c 0 -i 57 -a 0 -x {1.0 2.0 9 ------- null}
+ -t 0.186875 -s 1 -d 2 -p tcp -e 1040 -c 0 -i 58 -a 0 -x {1.0 2.0 10 ------- null}
r -t 0.191875 -s 4 -d 3 -p ack -e 40 -c 2 -i 56 -a 2 -x {4.0 2.2 1 ------- null}
+ -t 0.191875 -s 3 -d 2 -p ack -e 40 -c 2 -i 56 -a 2 -x {4.0 2.2 1 ------- null}
- -t 0.191875 -s 3 -d 2 -p ack -e 40 -c 2 -i 56 -a 2 -x {4.0 2.2 1 ------- null}
h -t 0.191875 -s 3 -d 2 -p ack -e 40 -c 2 -i 56 -a 2 -x {4.0 2.2 -1 ------- null}
- -t 0.1925 -s 1 -d 2 -p tcp -e 1040 -c 0 -i 49 -a 0 -x {1.0 2.0 6 ------- null}
h -t 0.1925 -s 1 -d 2 -p tcp -e 1040 -c 0 -i 49 -a 0 -x {1.0 2.0 -1 ------- null}
- -t 0.1925 -s 2 -d 3 -p tcp -e 1040 -c 1 -i 45 -a 1 -x {2.1 3.0 4 ------- null}
h -t 0.1925 -s 2 -d 3 -p tcp -e 1040 -c 1 -i 45 -a 1 -x {2.1 3.0 -1 ------- null}
r -t 0.1975 -s 1 -d 2 -p tcp -e 1040 -c 0 -i 48 -a 0 -x {1.0 2.0 5 ------- null}
+ -t 0.1975 -s 2 -d 1 -p ack -e 40 -c 0 -i 59 -a 0 -x {2.0 1.0 5 ------- null}
- -t 0.1975 -s 2 -d 1 -p ack -e 40 -c 0 -i 59 -a 0 -x {2.0 1.0 5 ------- null}
h -t 0.1975 -s 2 -d 1 -p ack -e 40 -c 0 -i 59 -a 0 -x {2.0 1.0 -1 ------- null}
r -t 0.1975 -s 2 -d 3 -p tcp -e 1040 -c 1 -i 44 -a 1 -x {2.1 3.0 3 ------- null}
+ -t 0.1975 -s 3 -d 2 -p ack -e 40 -c 1 -i 60 -a 1 -x {3.0 2.1 3 ------- null}
- -t 0.1975 -s 3 -d 2 -p ack -e 40 -c 1 -i 60 -a 1 -x {3.0 2.1 3 ------- null}
h -t 0.1975 -s 3 -d 2 -p ack -e 40 -c 1 -i 60 -a 1 -x {3.0 2.1 -1 ------- null}
r -t 0.1975 -s 3 -d 2 -p ack -e 40 -c 2 -i 56 -a 2 -x {4.0 2.2 1 ------- null}
+ -t 0.1975 -s 2 -d 3 -p tcp -e 1040 -c 2 -i 61 -a 2 -x {2.2 4.0 3 ------- null}
+ -t 0.1975 -s 2 -d 3 -p tcp -e 1040 -c 2 -i 62 -a 2 -x {2.2 4.0 4 ------- null}
r -t 0.2025 -s 3 -d 4 -p tcp -e 1040 -c 2 -i 39 -a 2 -x {2.2 4.0 2 ------- null}
+ -t 0.2025 -s 4 -d 3 -p ack -e 40 -c 2 -i 63 -a 2 -x {4.0 2.2 2 ------- null}
- -t 0.2025 -s 4 -d 3 -p ack -e 40 -c 2 -i 63 -a 2 -x {4.0 2.2 2 ------- null}
h -t 0.2025 -s 4 -d 3 -p ack -e 40 -c 2 -i 63 -a 2 -x {4.0 2.2 -1 ------- null}
r -t 0.203125 -s 2 -d 1 -p ack -e 40 -c 0 -i 59 -a 0 -x {2.0 1.0 5 ------- null}
+ -t 0.203125 -s 1 -d 2 -p tcp -e 1040 -c 0 -i 64 -a 0 -x {1.0 2.0 11 ------- null}
+ -t 0.203125 -s 1 -d 2 -p tcp -e 1040 -c 0 -i 65 -a 0 -x {1.0 2.0 12 ------- null}
r -t 0.203125 -s 3 -d 2 -p ack -e 40 -c 1 -i 60 -a 1 -x {3.0 2.1 3 ------- null}
+ -t 0.203125 -s 2 -d 3 -p tcp -e 1040 -c 1 -i 66 -a 1 -x {2.1 3.0 7 ------- null}
+ -t 0.203125 -s 2 -d 3 -p tcp -e 1040 -c 1 -i 67 -a 1 -x {2.1 3.0 8 ------- null}
r -t 0.208125 -s 4 -d 3 -p ack -e 40 -c 2 -i 63 -a 2 -x {4.0 2.2 2 ------- null}
+ -t 0.208125 -s 3 -d 2 -p ack -e 40 -c 2 -i 63 -a 2 -x {4.0 2.2 2 ------- null}
- -t 0.208125 -s 3 -d 2 -p ack -e 40 -c 2 -i 63 -a 2 -x {4.0 2.2 2 ------- null}
h -t 0.208125 -s 3 -d 2 -p ack -e 40 -c 2 -i 63 -a 2 -x {4.0 2.2 -1 ------- null}
- -t 0.20875 -s 1 -d 2 -p tcp -e 1040 -c 0 -i 53 -a 0 -x {1.0 2.0 7 ------- null}
h -t 0.20875 -s 1 -d 2 -p tcp -e 1040 -c 0 -i 53 -a 0 -x {1.0 2.0 -1 ------- null}
- -t 0.20875 -s 2 -d 3 -p tcp -e 1040 -c 1 -i 50 -a 1 -x {2.1 3.0 5 ------- null}
h -t 0.20875 -s 2 -d 3 -p tcp -e 1040 -c 1 -i 50 -a 1 -x {2.1 3.0 -1 ------- null}
r -t 0.21375 -s 1 -d 2 -p tcp -e 1040 -c 0 -i 49 -a 0 -x {1.0 2.0 6 ------- null}
+ -t 0.21375 -s 2 -d 1 -p ack -e 40 -c 0 -i 68 -a 0 -x {2.0 1.0 6 ------- null}
- -t 0.21375 -s 2 -d 1 -p ack -e 40 -c 0 -i 68 -a 0 -x {2.0 1.0 6 ------- null}
h -t 0.21375 -s 2 -d 1 -p ack -e 40 -c 0 -i 68 -a 0 -x {2.0 1.0 -1 ------- null}
r -t 0.21375 -s 2 -d 3 -p tcp -e 1040 -c 1 -i 45 -a 1 -x {2.1 3.0 4 ------- null}
+ -t 0.21375 -s 3 -d 2 -p ack -e 40 -c 1 -i 69 -a 1 -x {3.0 2.1 4 ------- null}
- -t 0.21375 -s 3 -d 2 -p ack -e 40 -c 1 -i 69 -a 1 -x {3.0 2.1 4 ------- null}
h -t 0.21375 -s 3 -d 2 -p ack -e 40 -c 1 -i 69 -a 1 -x {3.0 2.1 -1 ------- null}
r -t 0.21375 -s 3 -d 2 -p ack -e 40 -c 2 -i 63 -a 2 -x {4.0 2.2 2 ------- null}
+ -t 0.21375 -s 2 -d 3 -p tcp -e 1040 -c 2 -i 70 -a 2 -x {2.2 4.0 5 ------- null}
+ -t 0.21375 -s 2 -d 3 -p tcp -e 1040 -c 2 -i 71 -a 2 -x {2.2 4.0 6 ------- null}
r -t 0.219375 -s 2 -d 1 -p ack -e 40 -c 0 -i 68 -a 0 -x {2.0 1.0 6 ------- null}
+ -t 0.219375 -s 1 -d 2 -p tcp -e 1040 -c 0 -i 72 -a 0 -x {1.0 2.0 13 ------- null}
+ -t 0.219375 -s 1 -d 2 -p tcp -e 1040 -c 0 -i 73 -a 0 -x {1.0 2.0 14 ------- null}
r -t 0.219375 -s 3 -d 2 -p ack -e 40 -c 1 -i 69 -a 1 -x {3.0 2.1 4 ------- null}
+ -t 0.219375 -s 2 -d 3 -p tcp -e 1040 -c 1 -i 74 -a 1 -x {2.1 3.0 9 ------- null}
+ -t 0.219375 -s 2 -d 3 -p tcp -e 1040 -c 1 -i 75 -a 1 -x {2.1 3.0 10 ------- null}
+ -t 0.22058669092161 -s 4 -d 0 -p rtProtoDV -e 5 -c 0 -i 76 -a 0 -x {4.2 0.1 -1 ------- null}
- -t 0.22058669092161 -s 4 -d 0 -p rtProtoDV -e 5 -c 0 -i 76 -a 0 -x {4.2 0.1 -1 ------- null}
h -t 0.22058669092161 -s 4 -d 0 -p rtProtoDV -e 5 -c 0 -i 76 -a 0 -x {4.2 0.1 -1 ------- null}
+ -t 0.22058669092161 -s 4 -d 3 -p rtProtoDV -e 5 -c 0 -i 77 -a 0 -x {4.2 3.2 -1 ------- null}
- -t 0.22058669092161 -s 4 -d 3 -p rtProtoDV -e 5 -c 0 -i 77 -a 0 -x {4.2 3.2 -1 ------- null}
h -t 0.22058669092161 -s 4 -d 3 -p rtProtoDV -e 5 -c 0 -i 77 -a 0 -x {4.2 3.2 -1 ------- null}
- -t 0.225 -s 1 -d 2 -p tcp -e 1040 -c 0 -i 54 -a 0 -x {1.0 2.0 8 ------- null}
h -t 0.225 -s 1 -d 2 -p tcp -e 1040 -c 0 -i 54 -a 0 -x {1.0 2.0 -1 ------- null}
- -t 0.225 -s 2 -d 3 -p tcp -e 1040 -c 1 -i 51 -a 1 -x {2.1 3.0 6 ------- null}
h -t 0.225 -s 2 -d 3 -p tcp -e 1040 -c 1 -i 51 -a 1 -x {2.1 3.0 -1 ------- null}
r -t 0.22566481592161 -s 4 -d 0 -p rtProtoDV -e 5 -c 0 -i 76 -a 0 -x {4.2 0.1 -1 ------- null}
r -t 0.22566481592161 -s 4 -d 3 -p rtProtoDV -e 5 -c 0 -i 77 -a 0 -x {4.2 3.2 -1 ------- null}
r -t 0.23 -s 1 -d 2 -p tcp -e 1040 -c 0 -i 53 -a 0 -x {1.0 2.0 7 ------- null}
+ -t 0.23 -s 2 -d 1 -p ack -e 40 -c 0 -i 78 -a 0 -x {2.0 1.0 7 ------- null}
- -t 0.23 -s 2 -d 1 -p ack -e 40 -c 0 -i 78 -a 0 -x {2.0 1.0 7 ------- null}
h -t 0.23 -s 2 -d 1 -p ack -e 40 -c 0 -i 78 -a 0 -x {2.0 1.0 -1 ------- null}
r -t 0.23 -s 2 -d 3 -p tcp -e 1040 -c 1 -i 50 -a 1 -x {2.1 3.0 5 ------- null}
+ -t 0.23 -s 3 -d 2 -p ack -e 40 -c 1 -i 79 -a 1 -x {3.0 2.1 5 ------- null}
- -t 0.23 -s 3 -d 2 -p ack -e 40 -c 1 -i 79 -a 1 -x {3.0 2.1 5 ------- null}
h -t 0.23 -s 3 -d 2 -p ack -e 40 -c 1 -i 79 -a 1 -x {3.0 2.1 -1 ------- null}
r -t 0.235625 -s 2 -d 1 -p ack -e 40 -c 0 -i 78 -a 0 -x {2.0 1.0 7 ------- null}
+ -t 0.235625 -s 1 -d 2 -p tcp -e 1040 -c 0 -i 80 -a 0 -x {1.0 2.0 15 ------- null}
+ -t 0.235625 -s 1 -d 2 -p tcp -e 1040 -c 0 -i 81 -a 0 -x {1.0 2.0 16 ------- null}
r -t 0.235625 -s 3 -d 2 -p ack -e 40 -c 1 -i 79 -a 1 -x {3.0 2.1 5 ------- null}
+ -t 0.235625 -s 2 -d 3 -p tcp -e 1040 -c 1 -i 82 -a 1 -x {2.1 3.0 11 ------- null}
+ -t 0.235625 -s 2 -d 3 -p tcp -e 1040 -c 1 -i 83 -a 1 -x {2.1 3.0 12 ------- null}
- -t 0.24125 -s 1 -d 2 -p tcp -e 1040 -c 0 -i 57 -a 0 -x {1.0 2.0 9 ------- null}
h -t 0.24125 -s 1 -d 2 -p tcp -e 1040 -c 0 -i 57 -a 0 -x {1.0 2.0 -1 ------- null}
- -t 0.24125 -s 2 -d 3 -p tcp -e 1040 -c 2 -i 61 -a 2 -x {2.2 4.0 3 ------- null}
h -t 0.24125 -s 2 -d 3 -p tcp -e 1040 -c 2 -i 61 -a 2 -x {2.2 4.0 -1 ------- null}
r -t 0.24625 -s 1 -d 2 -p tcp -e 1040 -c 0 -i 54 -a 0 -x {1.0 2.0 8 ------- null}
+ -t 0.24625 -s 2 -d 1 -p ack -e 40 -c 0 -i 84 -a 0 -x {2.0 1.0 8 ------- null}
- -t 0.24625 -s 2 -d 1 -p ack -e 40 -c 0 -i 84 -a 0 -x {2.0 1.0 8 ------- null}
h -t 0.24625 -s 2 -d 1 -p ack -e 40 -c 0 -i 84 -a 0 -x {2.0 1.0 -1 ------- null}
r -t 0.24625 -s 2 -d 3 -p tcp -e 1040 -c 1 -i 51 -a 1 -x {2.1 3.0 6 ------- null}
+ -t 0.24625 -s 3 -d 2 -p ack -e 40 -c 1 -i 85 -a 1 -x {3.0 2.1 6 ------- null}
- -t 0.24625 -s 3 -d 2 -p ack -e 40 -c 1 -i 85 -a 1 -x {3.0 2.1 6 ------- null}
h -t 0.24625 -s 3 -d 2 -p ack -e 40 -c 1 -i 85 -a 1 -x {3.0 2.1 -1 ------- null}
r -t 0.251875 -s 2 -d 1 -p ack -e 40 -c 0 -i 84 -a 0 -x {2.0 1.0 8 ------- null}
+ -t 0.251875 -s 1 -d 2 -p tcp -e 1040 -c 0 -i 86 -a 0 -x {1.0 2.0 17 ------- null}
+ -t 0.251875 -s 1 -d 2 -p tcp -e 1040 -c 0 -i 87 -a 0 -x {1.0 2.0 18 ------- null}
r -t 0.251875 -s 3 -d 2 -p ack -e 40 -c 1 -i 85 -a 1 -x {3.0 2.1 6 ------- null}
+ -t 0.251875 -s 2 -d 3 -p tcp -e 1040 -c 1 -i 88 -a 1 -x {2.1 3.0 13 ------- null}
+ -t 0.251875 -s 2 -d 3 -p tcp -e 1040 -c 1 -i 89 -a 1 -x {2.1 3.0 14 ------- null}
- -t 0.2575 -s 1 -d 2 -p tcp -e 1040 -c 0 -i 58 -a 0 -x {1.0 2.0 10 ------- null}
h -t 0.2575 -s 1 -d 2 -p tcp -e 1040 -c 0 -i 58 -a 0 -x {1.0 2.0 -1 ------- null}
- -t 0.2575 -s 2 -d 3 -p tcp -e 1040 -c 2 -i 62 -a 2 -x {2.2 4.0 4 ------- null}
h -t 0.2575 -s 2 -d 3 -p tcp -e 1040 -c 2 -i 62 -a 2 -x {2.2 4.0 -1 ------- null}
r -t 0.2625 -s 1 -d 2 -p tcp -e 1040 -c 0 -i 57 -a 0 -x {1.0 2.0 9 ------- null}
+ -t 0.2625 -s 2 -d 1 -p ack -e 40 -c 0 -i 90 -a 0 -x {2.0 1.0 9 ------- null}
- -t 0.2625 -s 2 -d 1 -p ack -e 40 -c 0 -i 90 -a 0 -x {2.0 1.0 9 ------- null}
h -t 0.2625 -s 2 -d 1 -p ack -e 40 -c 0 -i 90 -a 0 -x {2.0 1.0 -1 ------- null}
r -t 0.2625 -s 2 -d 3 -p tcp -e 1040 -c 2 -i 61 -a 2 -x {2.2 4.0 3 ------- null}
+ -t 0.2625 -s 3 -d 4 -p tcp -e 1040 -c 2 -i 61 -a 2 -x {2.2 4.0 3 ------- null}
- -t 0.2625 -s 3 -d 4 -p tcp -e 1040 -c 2 -i 61 -a 2 -x {2.2 4.0 3 ------- null}
h -t 0.2625 -s 3 -d 4 -p tcp -e 1040 -c 2 -i 61 -a 2 -x {2.2 4.0 -1 ------- null}
r -t 0.268125 -s 2 -d 1 -p ack -e 40 -c 0 -i 90 -a 0 -x {2.0 1.0 9 ------- null}
+ -t 0.268125 -s 1 -d 2 -p tcp -e 1040 -c 0 -i 91 -a 0 -x {1.0 2.0 19 ------- null}
+ -t 0.268125 -s 1 -d 2 -p tcp -e 1040 -c 0 -i 92 -a 0 -x {1.0 2.0 20 ------- null}