V -t * -v 1.0a5 -a 0
A -t * -n 1 -p 0 -o 0x7fffffff -c 30 -a 1
A -t * -h 1 -m 1073741823 -s 0
c -t * -i 4 -n Azure
c -t * -i 0 -n Red
c -t * -i 1 -n Green
c -t * -i 2 -n Coral
c -t * -i 3 -n Blue
n -t * -a 4 -s 4 -S UP -v circle -c black -i black
n -t * -a 0 -s 0 -S UP -v circle -c black -i black
n -t * -a 5 -s 5 -S UP -v circle -c black -i black
n -t * -a 1 -s 1 -S UP -v circle -c black -i black
n -t * -a 6 -s 6 -S UP -v circle -c black -i black
n -t * -a 2 -s 2 -S UP -v circle -c black -i black
n -t * -a 7 -s 7 -S UP -v circle -c black -i black
n -t * -a 3 -s 3 -S UP -v circle -c black -i black
X -t * -n 8 -r 1Mb -D 10ms -o left
L -t * -s 8 -d 0 -o up
L -t * -s 8 -d 1 -o down
L -t * -s 8 -d 2 -o up
L -t * -s 8 -d 3 -o down
L -t * -s 8 -d 4 -o up
L -t * -s 8 -d 5 -o down
L -t * -s 8 -d 6 -o up
L -t * -s 8 -d 7 -o down
h -t 0.1 -s 1 -d 8 -p tcp -e 40 -c 0 -i 0 -a 0 -x {1.0 2.0 0 ------- null}
h -t 0.1 -s 3 -d 8 -p tcp -e 40 -c 1 -i 1 -a 1 -x {3.0 2.1 0 ------- null}
+ -t 0.11 -s 1 -d 8 -p tcp -e 40 -c 0 -i 0 -a 0 -x {1.0 2.0 0 ------- null}
- -t 0.11 -s 1 -d 8 -p tcp -e 40 -c 0 -i 0 -a 0 -x {1.0 2.0 0 ------- null}
h -t 0.11 -s 1 -d 8 -p tcp -e 40 -c 0 -i 0 -a 0 -x {1.0 2.0 -1 ------- null}
+ -t 0.11 -s 3 -d 8 -p tcp -e 40 -c 1 -i 1 -a 1 -x {3.0 2.1 0 ------- null}
- -t 0.11 -s 3 -d 8 -p tcp -e 40 -c 1 -i 1 -a 1 -x {3.0 2.1 0 ------- null}
h -t 0.11 -s 3 -d 8 -p tcp -e 40 -c 1 -i 1 -a 1 -x {3.0 2.1 -1 ------- null}
d -t 0.110004 -s 7 -d 8 -p tcp -e 40 -c 0 -i 0 -a 0 -x {1.0 2.0 0 ------- null}
d -t 0.110004 -s 6 -d 8 -p tcp -e 40 -c 0 -i 0 -a 0 -x {1.0 2.0 0 ------- null}
d -t 0.110004 -s 5 -d 8 -p tcp -e 40 -c 0 -i 0 -a 0 -x {1.0 2.0 0 ------- null}
d -t 0.110004 -s 4 -d 8 -p tcp -e 40 -c 0 -i 0 -a 0 -x {1.0 2.0 0 ------- null}
d -t 0.110004 -s 3 -d 8 -p tcp -e 40 -c 0 -i 0 -a 0 -x {1.0 2.0 0 ------- null}
d -t 0.110004 -s 0 -d 8 -p tcp -e 40 -c 0 -i 0 -a 0 -x {1.0 2.0 0 ------- null}
d -t 0.110004 -s 7 -d 8 -p tcp -e 40 -c 1 -i 1 -a 1 -x {3.0 2.1 0 ------- null}
d -t 0.110004 -s 6 -d 8 -p tcp -e 40 -c 1 -i 1 -a 1 -x {3.0 2.1 0 ------- null}
d -t 0.110004 -s 5 -d 8 -p tcp -e 40 -c 1 -i 1 -a 1 -x {3.0 2.1 0 ------- null}
d -t 0.110004 -s 4 -d 8 -p tcp -e 40 -c 1 -i 1 -a 1 -x {3.0 2.1 0 ------- null}
d -t 0.110004 -s 1 -d 8 -p tcp -e 40 -c 1 -i 1 -a 1 -x {3.0 2.1 0 ------- null}
d -t 0.110004 -s 0 -d 8 -p tcp -e 40 -c 1 -i 1 -a 1 -x {3.0 2.1 0 ------- null}
r -t 0.120004 -s 8 -d 2 -p tcp -e 40 -c 0 -i 0 -a 0 -x {1.0 2.0 0 ------- null}
h -t 0.120004 -s 2 -d 8 -p ack -e 40 -c 0 -i 2 -a 0 -x {2.0 1.0 0 ------- null}
r -t 0.120004 -s 8 -d 2 -p tcp -e 40 -c 1 -i 1 -a 1 -x {3.0 2.1 0 ------- null}
h -t 0.120004 -s 2 -d 8 -p ack -e 40 -c 1 -i 3 -a 1 -x {2.1 3.0 0 ------- null}
+ -t 0.130004 -s 2 -d 8 -p ack -e 40 -c 0 -i 2 -a 0 -x {2.0 1.0 0 ------- null}
- -t 0.130004 -s 2 -d 8 -p ack -e 40 -c 0 -i 2 -a 0 -x {2.0 1.0 0 ------- null}
h -t 0.130004 -s 2 -d 8 -p ack -e 40 -c 0 -i 2 -a 0 -x {2.0 1.0 -1 ------- null}
+ -t 0.130004 -s 2 -d 8 -p ack -e 40 -c 1 -i 3 -a 1 -x {2.1 3.0 0 ------- null}
d -t 0.130008 -s 7 -d 8 -p ack -e 40 -c 0 -i 2 -a 0 -x {2.0 1.0 0 ------- null}
d -t 0.130008 -s 6 -d 8 -p ack -e 40 -c 0 -i 2 -a 0 -x {2.0 1.0 0 ------- null}
d -t 0.130008 -s 5 -d 8 -p ack -e 40 -c 0 -i 2 -a 0 -x {2.0 1.0 0 ------- null}
d -t 0.130008 -s 4 -d 8 -p ack -e 40 -c 0 -i 2 -a 0 -x {2.0 1.0 0 ------- null}
d -t 0.130008 -s 3 -d 8 -p ack -e 40 -c 0 -i 2 -a 0 -x {2.0 1.0 0 ------- null}
d -t 0.130008 -s 0 -d 8 -p ack -e 40 -c 0 -i 2 -a 0 -x {2.0 1.0 0 ------- null}
- -t 0.13042 -s 2 -d 8 -p ack -e 40 -c 1 -i 3 -a 1 -x {2.1 3.0 0 ------- null}
h -t 0.13042 -s 2 -d 8 -p ack -e 40 -c 1 -i 3 -a 1 -x {2.1 3.0 -1 ------- null}
d -t 0.130424 -s 7 -d 8 -p ack -e 40 -c 1 -i 3 -a 1 -x {2.1 3.0 0 ------- null}
d -t 0.130424 -s 6 -d 8 -p ack -e 40 -c 1 -i 3 -a 1 -x {2.1 3.0 0 ------- null}
d -t 0.130424 -s 5 -d 8 -p ack -e 40 -c 1 -i 3 -a 1 -x {2.1 3.0 0 ------- null}
d -t 0.130424 -s 4 -d 8 -p ack -e 40 -c 1 -i 3 -a 1 -x {2.1 3.0 0 ------- null}
d -t 0.130424 -s 1 -d 8 -p ack -e 40 -c 1 -i 3 -a 1 -x {2.1 3.0 0 ------- null}
d -t 0.130424 -s 0 -d 8 -p ack -e 40 -c 1 -i 3 -a 1 -x {2.1 3.0 0 ------- null}
r -t 0.140008 -s 8 -d 1 -p ack -e 40 -c 0 -i 2 -a 0 -x {2.0 1.0 0 ------- null}
h -t 0.140008 -s 1 -d 8 -p tcp -e 1040 -c 0 -i 4 -a 0 -x {1.0 2.0 1 ------- null}
h -t 0.140008 -s 1 -d 8 -p tcp -e 1040 -c 0 -i 5 -a 0 -x {1.0 2.0 2 ------- null}
r -t 0.140424 -s 8 -d 3 -p ack -e 40 -c 1 -i 3 -a 1 -x {2.1 3.0 0 ------- null}
h -t 0.140424 -s 3 -d 8 -p tcp -e 1040 -c 1 -i 6 -a 1 -x {3.0 2.1 1 ------- null}
h -t 0.140424 -s 3 -d 8 -p tcp -e 1040 -c 1 -i 7 -a 1 -x {3.0 2.1 2 ------- null}
+ -t 0.150008 -s 1 -d 8 -p tcp -e 1040 -c 0 -i 4 -a 0 -x {1.0 2.0 1 ------- null}
- -t 0.150008 -s 1 -d 8 -p tcp -e 1040 -c 0 -i 4 -a 0 -x {1.0 2.0 1 ------- null}
h -t 0.150008 -s 1 -d 8 -p tcp -e 1040 -c 0 -i 4 -a 0 -x {1.0 2.0 -1 ------- null}
+ -t 0.150008 -s 1 -d 8 -p tcp -e 1040 -c 0 -i 5 -a 0 -x {1.0 2.0 2 ------- null}
d -t 0.150012 -s 7 -d 8 -p tcp -e 1040 -c 0 -i 4 -a 0 -x {1.0 2.0 1 ------- null}
d -t 0.150012 -s 6 -d 8 -p tcp -e 1040 -c 0 -i 4 -a 0 -x {1.0 2.0 1 ------- null}
d -t 0.150012 -s 5 -d 8 -p tcp -e 1040 -c 0 -i 4 -a 0 -x {1.0 2.0 1 ------- null}
d -t 0.150012 -s 4 -d 8 -p tcp -e 1040 -c 0 -i 4 -a 0 -x {1.0 2.0 1 ------- null}
d -t 0.150012 -s 3 -d 8 -p tcp -e 1040 -c 0 -i 4 -a 0 -x {1.0 2.0 1 ------- null}
d -t 0.150012 -s 0 -d 8 -p tcp -e 1040 -c 0 -i 4 -a 0 -x {1.0 2.0 1 ------- null}
+ -t 0.150424 -s 3 -d 8 -p tcp -e 1040 -c 1 -i 6 -a 1 -x {3.0 2.1 1 ------- null}
- -t 0.150424 -s 3 -d 8 -p tcp -e 1040 -c 1 -i 6 -a 1 -x {3.0 2.1 1 ------- null}
h -t 0.150424 -s 3 -d 8 -p tcp -e 1040 -c 1 -i 6 -a 1 -x {3.0 2.1 -1 ------- null}
+ -t 0.150424 -s 3 -d 8 -p tcp -e 1040 -c 1 -i 7 -a 1 -x {3.0 2.1 2 ------- null}
d -t 0.150428 -s 7 -d 8 -p tcp -e 1040 -c 1 -i 6 -a 1 -x {3.0 2.1 1 ------- null}
d -t 0.150428 -s 6 -d 8 -p tcp -e 1040 -c 1 -i 6 -a 1 -x {3.0 2.1 1 ------- null}
d -t 0.150428 -s 5 -d 8 -p tcp -e 1040 -c 1 -i 6 -a 1 -x {3.0 2.1 1 ------- null}
d -t 0.150428 -s 4 -d 8 -p tcp -e 1040 -c 1 -i 6 -a 1 -x {3.0 2.1 1 ------- null}
d -t 0.150428 -s 1 -d 8 -p tcp -e 1040 -c 1 -i 6 -a 1 -x {3.0 2.1 1 ------- null}
d -t 0.150428 -s 0 -d 8 -p tcp -e 1040 -c 1 -i 6 -a 1 -x {3.0 2.1 1 ------- null}
- -t 0.154424 -s 1 -d 8 -p tcp -e 1040 -c 0 -i 5 -a 0 -x {1.0 2.0 2 ------- null}
h -t 0.154424 -s 1 -d 8 -p tcp -e 1040 -c 0 -i 5 -a 0 -x {1.0 2.0 -1 ------- null}
d -t 0.154428 -s 7 -d 8 -p tcp -e 1040 -c 0 -i 5 -a 0 -x {1.0 2.0 2 ------- null}
d -t 0.154428 -s 6 -d 8 -p tcp -e 1040 -c 0 -i 5 -a 0 -x {1.0 2.0 2 ------- null}
d -t 0.154428 -s 5 -d 8 -p tcp -e 1040 -c 0 -i 5 -a 0 -x {1.0 2.0 2 ------- null}
d -t 0.154428 -s 4 -d 8 -p tcp -e 1040 -c 0 -i 5 -a 0 -x {1.0 2.0 2 ------- null}
d -t 0.154428 -s 3 -d 8 -p tcp -e 1040 -c 0 -i 5 -a 0 -x {1.0 2.0 2 ------- null}
d -t 0.154428 -s 0 -d 8 -p tcp -e 1040 -c 0 -i 5 -a 0 -x {1.0 2.0 2 ------- null}
- -t 0.15484 -s 3 -d 8 -p tcp -e 1040 -c 1 -i 7 -a 1 -x {3.0 2.1 2 ------- null}
h -t 0.15484 -s 3 -d 8 -p tcp -e 1040 -c 1 -i 7 -a 1 -x {3.0 2.1 -1 ------- null}
d -t 0.154844 -s 7 -d 8 -p tcp -e 1040 -c 1 -i 7 -a 1 -x {3.0 2.1 2 ------- null}
d -t 0.154844 -s 6 -d 8 -p tcp -e 1040 -c 1 -i 7 -a 1 -x {3.0 2.1 2 ------- null}
d -t 0.154844 -s 5 -d 8 -p tcp -e 1040 -c 1 -i 7 -a 1 -x {3.0 2.1 2 ------- null}
d -t 0.154844 -s 4 -d 8 -p tcp -e 1040 -c 1 -i 7 -a 1 -x {3.0 2.1 2 ------- null}
d -t 0.154844 -s 1 -d 8 -p tcp -e 1040 -c 1 -i 7 -a 1 -x {3.0 2.1 2 ------- null}
d -t 0.154844 -s 0 -d 8 -p tcp -e 1040 -c 1 -i 7 -a 1 -x {3.0 2.1 2 ------- null}
r -t 0.160012 -s 8 -d 2 -p tcp -e 1040 -c 0 -i 4 -a 0 -x {1.0 2.0 1 ------- null}
h -t 0.160012 -s 2 -d 8 -p ack -e 40 -c 0 -i 8 -a 0 -x {2.0 1.0 1 ------- null}
r -t 0.160428 -s 8 -d 2 -p tcp -e 1040 -c 1 -i 6 -a 1 -x {3.0 2.1 1 ------- null}
h -t 0.160428 -s 2 -d 8 -p ack -e 40 -c 1 -i 9 -a 1 -x {2.1 3.0 1 ------- null}
r -t 0.164428 -s 8 -d 2 -p tcp -e 1040 -c 0 -i 5 -a 0 -x {1.0 2.0 2 ------- null}
h -t 0.164428 -s 2 -d 8 -p ack -e 40 -c 0 -i 10 -a 0 -x {2.0 1.0 2 ------- null}
r -t 0.164844 -s 8 -d 2 -p tcp -e 1040 -c 1 -i 7 -a 1 -x {3.0 2.1 2 ------- null}
h -t 0.164844 -s 2 -d 8 -p ack -e 40 -c 1 -i 11 -a 1 -x {2.1 3.0 2 ------- null}
+ -t 0.170012 -s 2 -d 8 -p ack -e 40 -c 0 -i 8 -a 0 -x {2.0 1.0 1 ------- null}
- -t 0.170012 -s 2 -d 8 -p ack -e 40 -c 0 -i 8 -a 0 -x {2.0 1.0 1 ------- null}
h -t 0.170012 -s 2 -d 8 -p ack -e 40 -c 0 -i 8 -a 0 -x {2.0 1.0 -1 ------- null}
d -t 0.170016 -s 7 -d 8 -p ack -e 40 -c 0 -i 8 -a 0 -x {2.0 1.0 1 ------- null}
d -t 0.170016 -s 6 -d 8 -p ack -e 40 -c 0 -i 8 -a 0 -x {2.0 1.0 1 ------- null}
d -t 0.170016 -s 5 -d 8 -p ack -e 40 -c 0 -i 8 -a 0 -x {2.0 1.0 1 ------- null}
d -t 0.170016 -s 4 -d 8 -p ack -e 40 -c 0 -i 8 -a 0 -x {2.0 1.0 1 ------- null}
d -t 0.170016 -s 3 -d 8 -p ack -e 40 -c 0 -i 8 -a 0 -x {2.0 1.0 1 ------- null}
d -t 0.170016 -s 0 -d 8 -p ack -e 40 -c 0 -i 8 -a 0 -x {2.0 1.0 1 ------- null}
+ -t 0.170428 -s 2 -d 8 -p ack -e 40 -c 1 -i 9 -a 1 -x {2.1 3.0 1 ------- null}
- -t 0.170428 -s 2 -d 8 -p ack -e 40 -c 1 -i 9 -a 1 -x {2.1 3.0 1 ------- null}
h -t 0.170428 -s 2 -d 8 -p ack -e 40 -c 1 -i 9 -a 1 -x {2.1 3.0 -1 ------- null}
d -t 0.170432 -s 7 -d 8 -p ack -e 40 -c 1 -i 9 -a 1 -x {2.1 3.0 1 ------- null}
d -t 0.170432 -s 6 -d 8 -p ack -e 40 -c 1 -i 9 -a 1 -x {2.1 3.0 1 ------- null}
d -t 0.170432 -s 5 -d 8 -p ack -e 40 -c 1 -i 9 -a 1 -x {2.1 3.0 1 ------- null}
d -t 0.170432 -s 4 -d 8 -p ack -e 40 -c 1 -i 9 -a 1 -x {2.1 3.0 1 ------- null}
d -t 0.170432 -s 1 -d 8 -p ack -e 40 -c 1 -i 9 -a 1 -x {2.1 3.0 1 ------- null}
d -t 0.170432 -s 0 -d 8 -p ack -e 40 -c 1 -i 9 -a 1 -x {2.1 3.0 1 ------- null}
+ -t 0.174428 -s 2 -d 8 -p ack -e 40 -c 0 -i 10 -a 0 -x {2.0 1.0 2 ------- null}
- -t 0.174428 -s 2 -d 8 -p ack -e 40 -c 0 -i 10 -a 0 -x {2.0 1.0 2 ------- null}
h -t 0.174428 -s 2 -d 8 -p ack -e 40 -c 0 -i 10 -a 0 -x {2.0 1.0 -1 ------- null}
d -t 0.174432 -s 7 -d 8 -p ack -e 40 -c 0 -i 10 -a 0 -x {2.0 1.0 2 ------- null}
d -t 0.174432 -s 6 -d 8 -p ack -e 40 -c 0 -i 10 -a 0 -x {2.0 1.0 2 ------- null}
d -t 0.174432 -s 5 -d 8 -p ack -e 40 -c 0 -i 10 -a 0 -x {2.0 1.0 2 ------- null}
d -t 0.174432 -s 4 -d 8 -p ack -e 40 -c 0 -i 10 -a 0 -x {2.0 1.0 2 ------- null}
d -t 0.174432 -s 3 -d 8 -p ack -e 40 -c 0 -i 10 -a 0 -x {2.0 1.0 2 ------- null}
d -t 0.174432 -s 0 -d 8 -p ack -e 40 -c 0 -i 10 -a 0 -x {2.0 1.0 2 ------- null}
+ -t 0.174844 -s 2 -d 8 -p ack -e 40 -c 1 -i 11 -a 1 -x {2.1 3.0 2 ------- null}
- -t 0.174844 -s 2 -d 8 -p ack -e 40 -c 1 -i 11 -a 1 -x {2.1 3.0 2 ------- null}
h -t 0.174844 -s 2 -d 8 -p ack -e 40 -c 1 -i 11 -a 1 -x {2.1 3.0 -1 ------- null}
d -t 0.174848 -s 7 -d 8 -p ack -e 40 -c 1 -i 11 -a 1 -x {2.1 3.0 2 ------- null}
d -t 0.174848 -s 6 -d 8 -p ack -e 40 -c 1 -i 11 -a 1 -x {2.1 3.0 2 ------- null}
d -t 0.174848 -s 5 -d 8 -p ack -e 40 -c 1 -i 11 -a 1 -x {2.1 3.0 2 ------- null}
d -t 0.174848 -s 4 -d 8 -p ack -e 40 -c 1 -i 11 -a 1 -x {2.1 3.0 2 ------- null}
d -t 0.174848 -s 1 -d 8 -p ack -e 40 -c 1 -i 11 -a 1 -x {2.1 3.0 2 ------- null}
d -t 0.174848 -s 0 -d 8 -p ack -e 40 -c 1 -i 11 -a 1 -x {2.1 3.0 2 ------- null}
r -t 0.180016 -s 8 -d 1 -p ack -e 40 -c 0 -i 8 -a 0 -x {2.0 1.0 1 ------- null}
h -t 0.180016 -s 1 -d 8 -p tcp -e 1040 -c 0 -i 12 -a 0 -x {1.0 2.0 3 ------- null}
h -t 0.180016 -s 1 -d 8 -p tcp -e 1040 -c 0 -i 13 -a 0 -x {1.0 2.0 4 ------- null}
r -t 0.180432 -s 8 -d 3 -p ack -e 40 -c 1 -i 9 -a 1 -x {2.1 3.0 1 ------- null}
h -t 0.180432 -s 3 -d 8 -p tcp -e 1040 -c 1 -i 14 -a 1 -x {3.0 2.1 3 ------- null}
h -t 0.180432 -s 3 -d 8 -p tcp -e 1040 -c 1 -i 15 -a 1 -x {3.0 2.1 4 ------- null}
r -t 0.184432 -s 8 -d 1 -p ack -e 40 -c 0 -i 10 -a 0 -x {2.0 1.0 2 ------- null}
h -t 0.184432 -s 1 -d 8 -p tcp -e 1040 -c 0 -i 16 -a 0 -x {1.0 2.0 5 ------- null}
h -t 0.184432 -s 1 -d 8 -p tcp -e 1040 -c 0 -i 17 -a 0 -x {1.0 2.0 6 ------- null}
r -t 0.184848 -s 8 -d 3 -p ack -e 40 -c 1 -i 11 -a 1 -x {2.1 3.0 2 ------- null}
h -t 0.184848 -s 3 -d 8 -p tcp -e 1040 -c 1 -i 18 -a 1 -x {3.0 2.1 5 ------- null}
h -t 0.184848 -s 3 -d 8 -p tcp -e 1040 -c 1 -i 19 -a 1 -x {3.0 2.1 6 ------- null}
+ -t 0.190016 -s 1 -d 8 -p tcp -e 1040 -c 0 -i 12 -a 0 -x {1.0 2.0 3 ------- null}
- -t 0.190016 -s 1 -d 8 -p tcp -e 1040 -c 0 -i 12 -a 0 -x {1.0 2.0 3 ------- null}
h -t 0.190016 -s 1 -d 8 -p tcp -e 1040 -c 0 -i 12 -a 0 -x {1.0 2.0 -1 ------- null}
+ -t 0.190016 -s 1 -d 8 -p tcp -e 1040 -c 0 -i 13 -a 0 -x {1.0 2.0 4 ------- null}
d -t 0.19002 -s 7 -d 8 -p tcp -e 1040 -c 0 -i 12 -a 0 -x {1.0 2.0 3 ------- null}
d -t 0.19002 -s 6 -d 8 -p tcp -e 1040 -c 0 -i 12 -a 0 -x {1.0 2.0 3 ------- null}
d -t 0.19002 -s 5 -d 8 -p tcp -e 1040 -c 0 -i 12 -a 0 -x {1.0 2.0 3 ------- null}
d -t 0.19002 -s 4 -d 8 -p tcp -e 1040 -c 0 -i 12 -a 0 -x {1.0 2.0 3 ------- null}
d -t 0.19002 -s 3 -d 8 -p tcp -e 1040 -c 0 -i 12 -a 0 -x {1.0 2.0 3 ------- null}
d -t 0.19002 -s 0 -d 8 -p tcp -e 1040 -c 0 -i 12 -a 0 -x {1.0 2.0 3 ------- null}
+ -t 0.190432 -s 3 -d 8 -p tcp -e 1040 -c 1 -i 14 -a 1 -x {3.0 2.1 3 ------- null}
- -t 0.190432 -s 3 -d 8 -p tcp -e 1040 -c 1 -i 14 -a 1 -x {3.0 2.1 3 ------- null}
h -t 0.190432 -s 3 -d 8 -p tcp -e 1040 -c 1 -i 14 -a 1 -x {3.0 2.1 -1 ------- null}
+ -t 0.190432 -s 3 -d 8 -p tcp -e 1040 -c 1 -i 15 -a 1 -x {3.0 2.1 4 ------- null}
d -t 0.190436 -s 7 -d 8 -p tcp -e 1040 -c 1 -i 14 -a 1 -x {3.0 2.1 3 ------- null}
d -t 0.190436 -s 6 -d 8 -p tcp -e 1040 -c 1 -i 14 -a 1 -x {3.0 2.1 3 ------- null}
d -t 0.190436 -s 5 -d 8 -p tcp -e 1040 -c 1 -i 14 -a 1 -x {3.0 2.1 3 ------- null}
d -t 0.190436 -s 4 -d 8 -p tcp -e 1040 -c 1 -i 14 -a 1 -x {3.0 2.1 3 ------- null}
d -t 0.190436 -s 1 -d 8 -p tcp -e 1040 -c 1 -i 14 -a 1 -x {3.0 2.1 3 ------- null}
d -t 0.190436 -s 0 -d 8 -p tcp -e 1040 -c 1 -i 14 -a 1 -x {3.0 2.1 3 ------- null}
+ -t 0.194432 -s 1 -d 8 -p tcp -e 1040 -c 0 -i 16 -a 0 -x {1.0 2.0 5 ------- null}
+ -t 0.194432 -s 1 -d 8 -p tcp -e 1040 -c 0 -i 17 -a 0 -x {1.0 2.0 6 ------- null}
- -t 0.194432 -s 1 -d 8 -p tcp -e 1040 -c 0 -i 13 -a 0 -x {1.0 2.0 4 ------- null}
h -t 0.194432 -s 1 -d 8 -p tcp -e 1040 -c 0 -i 13 -a 0 -x {1.0 2.0 -1 ------- null}
d -t 0.194436 -s 7 -d 8 -p tcp -e 1040 -c 0 -i 13 -a 0 -x {1.0 2.0 4 ------- null}
d -t 0.194436 -s 6 -d 8 -p tcp -e 1040 -c 0 -i 13 -a 0 -x {1.0 2.0 4 ------- null}
d -t 0.194436 -s 5 -d 8 -p tcp -e 1040 -c 0 -i 13 -a 0 -x {1.0 2.0 4 ------- null}
d -t 0.194436 -s 4 -d 8 -p tcp -e 1040 -c 0 -i 13 -a 0 -x {1.0 2.0 4 ------- null}
d -t 0.194436 -s 3 -d 8 -p tcp -e 1040 -c 0 -i 13 -a 0 -x {1.0 2.0 4 ------- null}
d -t 0.194436 -s 0 -d 8 -p tcp -e 1040 -c 0 -i 13 -a 0 -x {1.0 2.0 4 ------- null}
+ -t 0.194848 -s 3 -d 8 -p tcp -e 1040 -c 1 -i 18 -a 1 -x {3.0 2.1 5 ------- null}
+ -t 0.194848 -s 3 -d 8 -p tcp -e 1040 -c 1 -i 19 -a 1 -x {3.0 2.1 6 ------- null}
- -t 0.194848 -s 3 -d 8 -p tcp -e 1040 -c 1 -i 15 -a 1 -x {3.0 2.1 4 ------- null}
h -t 0.194848 -s 3 -d 8 -p tcp -e 1040 -c 1 -i 15 -a 1 -x {3.0 2.1 -1 ------- null}
d -t 0.194852 -s 7 -d 8 -p tcp -e 1040 -c 1 -i 15 -a 1 -x {3.0 2.1 4 ------- null}
d -t 0.194852 -s 6 -d 8 -p tcp -e 1040 -c 1 -i 15 -a 1 -x {3.0 2.1 4 ------- null}
d -t 0.194852 -s 5 -d 8 -p tcp -e 1040 -c 1 -i 15 -a 1 -x {3.0 2.1 4 ------- null}
d -t 0.194852 -s 4 -d 8 -p tcp -e 1040 -c 1 -i 15 -a 1 -x {3.0 2.1 4 ------- null}
d -t 0.194852 -s 1 -d 8 -p tcp -e 1040 -c 1 -i 15 -a 1 -x {3.0 2.1 4 ------- null}
d -t 0.194852 -s 0 -d 8 -p tcp -e 1040 -c 1 -i 15 -a 1 -x {3.0 2.1 4 ------- null}
- -t 0.198848 -s 1 -d 8 -p tcp -e 1040 -c 0 -i 16 -a 0 -x {1.0 2.0 5 ------- null}
h -t 0.198848 -s 1 -d 8 -p tcp -e 1040 -c 0 -i 16 -a 0 -x {1.0 2.0 -1 ------- null}
d -t 0.198852 -s 7 -d 8 -p tcp -e 1040 -c 0 -i 16 -a 0 -x {1.0 2.0 5 ------- null}
d -t 0.198852 -s 6 -d 8 -p tcp -e 1040 -c 0 -i 16 -a 0 -x {1.0 2.0 5 ------- null}
d -t 0.198852 -s 5 -d 8 -p tcp -e 1040 -c 0 -i 16 -a 0 -x {1.0 2.0 5 ------- null}
d -t 0.198852 -s 4 -d 8 -p tcp -e 1040 -c 0 -i 16 -a 0 -x {1.0 2.0 5 ------- null}
d -t 0.198852 -s 3 -d 8 -p tcp -e 1040 -c 0 -i 16 -a 0 -x {1.0 2.0 5 ------- null}
d -t 0.198852 -s 0 -d 8 -p tcp -e 1040 -c 0 -i 16 -a 0 -x {1.0 2.0 5 ------- null}
- -t 0.199264 -s 3 -d 8 -p tcp -e 1040 -c 1 -i 18 -a 1 -x {3.0 2.1 5 ------- null}
h -t 0.199264 -s 3 -d 8 -p tcp -e 1040 -c 1 -i 18 -a 1 -x {3.0 2.1 -1 ------- null}
d -t 0.199268 -s 7 -d 8 -p tcp -e 1040 -c 1 -i 18 -a 1 -x {3.0 2.1 5 ------- null}
d -t 0.199268 -s 6 -d 8 -p tcp -e 1040 -c 1 -i 18 -a 1 -x {3.0 2.1 5 ------- null}
d -t 0.199268 -s 5 -d 8 -p tcp -e 1040 -c 1 -i 18 -a 1 -x {3.0 2.1 5 ------- null}
d -t 0.199268 -s 4 -d 8 -p tcp -e 1040 -c 1 -i 18 -a 1 -x {3.0 2.1 5 ------- null}
d -t 0.199268 -s 1 -d 8 -p tcp -e 1040 -c 1 -i 18 -a 1 -x {3.0 2.1 5 ------- null}
d -t 0.199268 -s 0 -d 8 -p tcp -e 1040 -c 1 -i 18 -a 1 -x {3.0 2.1 5 ------- null}
r -t 0.20002 -s 8 -d 2 -p tcp -e 1040 -c 0 -i 12 -a 0 -x {1.0 2.0 3 ------- null}
h -t 0.20002 -s 2 -d 8 -p ack -e 40 -c 0 -i 20 -a 0 -x {2.0 1.0 3 ------- null}
r -t 0.200436 -s 8 -d 2 -p tcp -e 1040 -c 1 -i 14 -a 1 -x {3.0 2.1 3 ------- null}
h -t 0.200436 -s 2 -d 8 -p ack -e 40 -c 1 -i 21 -a 1 -x {2.1 3.0 3 ------- null}
- -t 0.203264 -s 1 -d 8 -p tcp -e 1040 -c 0 -i 17 -a 0 -x {1.0 2.0 6 ------- null}
h -t 0.203264 -s 1 -d 8 -p tcp -e 1040 -c 0 -i 17 -a 0 -x {1.0 2.0 -1 ------- null}
d -t 0.203268 -s 7 -d 8 -p tcp -e 1040 -c 0 -i 17 -a 0 -x {1.0 2.0 6 ------- null}
d -t 0.203268 -s 6 -d 8 -p tcp -e 1040 -c 0 -i 17 -a 0 -x {1.0 2.0 6 ------- null}
d -t 0.203268 -s 5 -d 8 -p tcp -e 1040 -c 0 -i 17 -a 0 -x {1.0 2.0 6 ------- null}
d -t 0.203268 -s 4 -d 8 -p tcp -e 1040 -c 0 -i 17 -a 0 -x {1.0 2.0 6 ------- null}
d -t 0.203268 -s 3 -d 8 -p tcp -e 1040 -c 0 -i 17 -a 0 -x {1.0 2.0 6 ------- null}
d -t 0.203268 -s 0 -d 8 -p tcp -e 1040 -c 0 -i 17 -a 0 -x {1.0 2.0 6 ------- null}
- -t 0.20368 -s 3 -d 8 -p tcp -e 1040 -c 1 -i 19 -a 1 -x {3.0 2.1 6 ------- null}
h -t 0.20368 -s 3 -d 8 -p tcp -e 1040 -c 1 -i 19 -a 1 -x {3.0 2.1 -1 ------- null}
d -t 0.203684 -s 7 -d 8 -p tcp -e 1040 -c 1 -i 19 -a 1 -x {3.0 2.1 6 ------- null}
d -t 0.203684 -s 6 -d 8 -p tcp -e 1040 -c 1 -i 19 -a 1 -x {3.0 2.1 6 ------- null}
d -t 0.203684 -s 5 -d 8 -p tcp -e 1040 -c 1 -i 19 -a 1 -x {3.0 2.1 6 ------- null}
d -t 0.203684 -s 4 -d 8 -p tcp -e 1040 -c 1 -i 19 -a 1 -x {3.0 2.1 6 ------- null}
d -t 0.203684 -s 1 -d 8 -p tcp -e 1040 -c 1 -i 19 -a 1 -x {3.0 2.1 6 ------- null}
d -t 0.203684 -s 0 -d 8 -p tcp -e 1040 -c 1 -i 19 -a 1 -x {3.0 2.1 6 ------- null}
r -t 0.204436 -s 8 -d 2 -p tcp -e 1040 -c 0 -i 13 -a 0 -x {1.0 2.0 4 ------- null}
h -t 0.204436 -s 2 -d 8 -p ack -e 40 -c 0 -i 22 -a 0 -x {2.0 1.0 4 ------- null}
r -t 0.204852 -s 8 -d 2 -p tcp -e 1040 -c 1 -i 15 -a 1 -x {3.0 2.1 4 ------- null}
h -t 0.204852 -s 2 -d 8 -p ack -e 40 -c 1 -i 23 -a 1 -x {2.1 3.0 4 ------- null}
r -t 0.208852 -s 8 -d 2 -p tcp -e 1040 -c 0 -i 16 -a 0 -x {1.0 2.0 5 ------- null}
h -t 0.208852 -s 2 -d 8 -p ack -e 40 -c 0 -i 24 -a 0 -x {2.0 1.0 5 ------- null}
r -t 0.209268 -s 8 -d 2 -p tcp -e 1040 -c 1 -i 18 -a 1 -x {3.0 2.1 5 ------- null}
h -t 0.209268 -s 2 -d 8 -p ack -e 40 -c 1 -i 25 -a 1 -x {2.1 3.0 5 ------- null}
+ -t 0.21002 -s 2 -d 8 -p ack -e 40 -c 0 -i 20 -a 0 -x {2.0 1.0 3 ------- null}
- -t 0.21002 -s 2 -d 8 -p ack -e 40 -c 0 -i 20 -a 0 -x {2.0 1.0 3 ------- null}
h -t 0.21002 -s 2 -d 8 -p ack -e 40 -c 0 -i 20 -a 0 -x {2.0 1.0 -1 ------- null}
d -t 0.210024 -s 7 -d 8 -p ack -e 40 -c 0 -i 20 -a 0 -x {2.0 1.0 3 ------- null}
d -t 0.210024 -s 6 -d 8 -p ack -e 40 -c 0 -i 20 -a 0 -x {2.0 1.0 3 ------- null}
d -t 0.210024 -s 5 -d 8 -p ack -e 40 -c 0 -i 20 -a 0 -x {2.0 1.0 3 ------- null}
d -t 0.210024 -s 4 -d 8 -p ack -e 40 -c 0 -i 20 -a 0 -x {2.0 1.0 3 ------- null}
d -t 0.210024 -s 3 -d 8 -p ack -e 40 -c 0 -i 20 -a 0 -x {2.0 1.0 3 ------- null}
d -t 0.210024 -s 0 -d 8 -p ack -e 40 -c 0 -i 20 -a 0 -x {2.0 1.0 3 ------- null}
+ -t 0.210436 -s 2 -d 8 -p ack -e 40 -c 1 -i 21 -a 1 -x {2.1 3.0 3 ------- null}
- -t 0.210436 -s 2 -d 8 -p ack -e 40 -c 1 -i 21 -a 1 -x {2.1 3.0 3 ------- null}
h -t 0.210436 -s 2 -d 8 -p ack -e 40 -c 1 -i 21 -a 1 -x {2.1 3.0 -1 ------- null}
d -t 0.21044 -s 7 -d 8 -p ack -e 40 -c 1 -i 21 -a 1 -x {2.1 3.0 3 ------- null}
d -t 0.21044 -s 6 -d 8 -p ack -e 40 -c 1 -i 21 -a 1 -x {2.1 3.0 3 ------- null}
d -t 0.21044 -s 5 -d 8 -p ack -e 40 -c 1 -i 21 -a 1 -x {2.1 3.0 3 ------- null}
d -t 0.21044 -s 4 -d 8 -p ack -e 40 -c 1 -i 21 -a 1 -x {2.1 3.0 3 ------- null}
d -t 0.21044 -s 1 -d 8 -p ack -e 40 -c 1 -i 21 -a 1 -x {2.1 3.0 3 ------- null}
d -t 0.21044 -s 0 -d 8 -p ack -e 40 -c 1 -i 21 -a 1 -x {2.1 3.0 3 ------- null}
r -t 0.213268 -s 8 -d 2 -p tcp -e 1040 -c 0 -i 17 -a 0 -x {1.0 2.0 6 ------- null}
h -t 0.213268 -s 2 -d 8 -p ack -e 40 -c 0 -i 26 -a 0 -x {2.0 1.0 6 ------- null}
r -t 0.213684 -s 8 -d 2 -p tcp -e 1040 -c 1 -i 19 -a 1 -x {3.0 2.1 6 ------- null}
h -t 0.213684 -s 2 -d 8 -p ack -e 40 -c 1 -i 27 -a 1 -x {2.1 3.0 6 ------- null}
+ -t 0.214436 -s 2 -d 8 -p ack -e 40 -c 0 -i 22 -a 0 -x {2.0 1.0 4 ------- null}
- -t 0.214436 -s 2 -d 8 -p ack -e 40 -c 0 -i 22 -a 0 -x {2.0 1.0 4 ------- null}
h -t 0.214436 -s 2 -d 8 -p ack -e 40 -c 0 -i 22 -a 0 -x {2.0 1.0 -1 ------- null}
d -t 0.21444 -s 7 -d 8 -p ack -e 40 -c 0 -i 22 -a 0 -x {2.0 1.0 4 ------- null}
d -t 0.21444 -s 6 -d 8 -p ack -e 40 -c 0 -i 22 -a 0 -x {2.0 1.0 4 ------- null}
d -t 0.21444 -s 5 -d 8 -p ack -e 40 -c 0 -i 22 -a 0 -x {2.0 1.0 4 ------- null}
d -t 0.21444 -s 4 -d 8 -p ack -e 40 -c 0 -i 22 -a 0 -x {2.0 1.0 4 ------- null}
d -t 0.21444 -s 3 -d 8 -p ack -e 40 -c 0 -i 22 -a 0 -x {2.0 1.0 4 ------- null}
d -t 0.21444 -s 0 -d 8 -p ack -e 40 -c 0 -i 22 -a 0 -x {2.0 1.0 4 ------- null}
+ -t 0.214852 -s 2 -d 8 -p ack -e 40 -c 1 -i 23 -a 1 -x {2.1 3.0 4 ------- null}
- -t 0.214852 -s 2 -d 8 -p ack -e 40 -c 1 -i 23 -a 1 -x {2.1 3.0 4 ------- null}
h -t 0.214852 -s 2 -d 8 -p ack -e 40 -c 1 -i 23 -a 1 -x {2.1 3.0 -1 ------- null}
d -t 0.214856 -s 7 -d 8 -p ack -e 40 -c 1 -i 23 -a 1 -x {2.1 3.0 4 ------- null}
d -t 0.214856 -s 6 -d 8 -p ack -e 40 -c 1 -i 23 -a 1 -x {2.1 3.0 4 ------- null}
d -t 0.214856 -s 5 -d 8 -p ack -e 40 -c 1 -i 23 -a 1 -x {2.1 3.0 4 ------- null}
d -t 0.214856 -s 4 -d 8 -p ack -e 40 -c 1 -i 23 -a 1 -x {2.1 3.0 4 ------- null}
d -t 0.214856 -s 1 -d 8 -p ack -e 40 -c 1 -i 23 -a 1 -x {2.1 3.0 4 ------- null}
d -t 0.214856 -s 0 -d 8 -p ack -e 40 -c 1 -i 23 -a 1 -x {2.1 3.0 4 ------- null}
+ -t 0.218852 -s 2 -d 8 -p ack -e 40 -c 0 -i 24 -a 0 -x {2.0 1.0 5 ------- null}
- -t 0.218852 -s 2 -d 8 -p ack -e 40 -c 0 -i 24 -a 0 -x {2.0 1.0 5 ------- null}
h -t 0.218852 -s 2 -d 8 -p ack -e 40 -c 0 -i 24 -a 0 -x {2.0 1.0 -1 ------- null}
d -t 0.218856 -s 7 -d 8 -p ack -e 40 -c 0 -i 24 -a 0 -x {2.0 1.0 5 ------- null}
d -t 0.218856 -s 6 -d 8 -p ack -e 40 -c 0 -i 24 -a 0 -x {2.0 1.0 5 ------- null}
d -t 0.218856 -s 5 -d 8 -p ack -e 40 -c 0 -i 24 -a 0 -x {2.0 1.0 5 ------- null}
d -t 0.218856 -s 4 -d 8 -p ack -e 40 -c 0 -i 24 -a 0 -x {2.0 1.0 5 ------- null}
d -t 0.218856 -s 3 -d 8 -p ack -e 40 -c 0 -i 24 -a 0 -x {2.0 1.0 5 ------- null}
d -t 0.218856 -s 0 -d 8 -p ack -e 40 -c 0 -i 24 -a 0 -x {2.0 1.0 5 ------- null}
+ -t 0.219268 -s 2 -d 8 -p ack -e 40 -c 1 -i 25 -a 1 -x {2.1 3.0 5 ------- null}
- -t 0.219268 -s 2 -d 8 -p ack -e 40 -c 1 -i 25 -a 1 -x {2.1 3.0 5 ------- null}
h -t 0.219268 -s 2 -d 8 -p ack -e 40 -c 1 -i 25 -a 1 -x {2.1 3.0 -1 ------- null}
d -t 0.219272 -s 7 -d 8 -p ack -e 40 -c 1 -i 25 -a 1 -x {2.1 3.0 5 ------- null}
d -t 0.219272 -s 6 -d 8 -p ack -e 40 -c 1 -i 25 -a 1 -x {2.1 3.0 5 ------- null}
d -t 0.219272 -s 5 -d 8 -p ack -e 40 -c 1 -i 25 -a 1 -x {2.1 3.0 5 ------- null}
d -t 0.219272 -s 4 -d 8 -p ack -e 40 -c 1 -i 25 -a 1 -x {2.1 3.0 5 ------- null}
d -t 0.219272 -s 1 -d 8 -p ack -e 40 -c 1 -i 25 -a 1 -x {2.1 3.0 5 ------- null}
d -t 0.219272 -s 0 -d 8 -p ack -e 40 -c 1 -i 25 -a 1 -x {2.1 3.0 5 ------- null}
r -t 0.220024 -s 8 -d 1 -p ack -e 40 -c 0 -i 20 -a 0 -x {2.0 1.0 3 ------- null}
h -t 0.220024 -s 1 -d 8 -p tcp -e 1040 -c 0 -i 28 -a 0 -x {1.0 2.0 7 ------- null}
h -t 0.220024 -s 1 -d 8 -p tcp -e 1040 -c 0 -i 29 -a 0 -x {1.0 2.0 8 ------- null}
r -t 0.22044 -s 8 -d 3 -p ack -e 40 -c 1 -i 21 -a 1 -x {2.1 3.0 3 ------- null}
h -t 0.22044 -s 3 -d 8 -p tcp -e 1040 -c 1 -i 30 -a 1 -x {3.0 2.1 7 ------- null}
h -t 0.22044 -s 3 -d 8 -p tcp -e 1040 -c 1 -i 31 -a 1 -x {3.0 2.1 8 ------- null}
+ -t 0.223268 -s 2 -d 8 -p ack -e 40 -c 0 -i 26 -a 0 -x {2.0 1.0 6 ------- null}
- -t 0.223268 -s 2 -d 8 -p ack -e 40 -c 0 -i 26 -a 0 -x {2.0 1.0 6 ------- null}
h -t 0.223268 -s 2 -d 8 -p ack -e 40 -c 0 -i 26 -a 0 -x {2.0 1.0 -1 ------- null}
d -t 0.223272 -s 7 -d 8 -p ack -e 40 -c 0 -i 26 -a 0 -x {2.0 1.0 6 ------- null}
d -t 0.223272 -s 6 -d 8 -p ack -e 40 -c 0 -i 26 -a 0 -x {2.0 1.0 6 ------- null}
d -t 0.223272 -s 5 -d 8 -p ack -e 40 -c 0 -i 26 -a 0 -x {2.0 1.0 6 ------- null}
d -t 0.223272 -s 4 -d 8 -p ack -e 40 -c 0 -i 26 -a 0 -x {2.0 1.0 6 ------- null}
d -t 0.223272 -s 3 -d 8 -p ack -e 40 -c 0 -i 26 -a 0 -x {2.0 1.0 6 ------- null}
d -t 0.223272 -s 0 -d 8 -p ack -e 40 -c 0 -i 26 -a 0 -x {2.0 1.0 6 ------- null}
+ -t 0.223684 -s 2 -d 8 -p ack -e 40 -c 1 -i 27 -a 1 -x {2.1 3.0 6 ------- null}
- -t 0.223684 -s 2 -d 8 -p ack -e 40 -c 1 -i 27 -a 1 -x {2.1 3.0 6 ------- null}
h -t 0.223684 -s 2 -d 8 -p ack -e 40 -c 1 -i 27 -a 1 -x {2.1 3.0 -1 ------- null}
d -t 0.223688 -s 7 -d 8 -p ack -e 40 -c 1 -i 27 -a 1 -x {2.1 3.0 6 ------- null}
d -t 0.223688 -s 6 -d 8 -p ack -e 40 -c 1 -i 27 -a 1 -x {2.1 3.0 6 ------- null}
d -t 0.223688 -s 5 -d 8 -p ack -e 40 -c 1 -i 27 -a 1 -x {2.1 3.0 6 ------- null}
d -t 0.223688 -s 4 -d 8 -p ack -e 40 -c 1 -i 27 -a 1 -x {2.1 3.0 6 ------- null}
d -t 0.223688 -s 1 -d 8 -p ack -e 40 -c 1 -i 27 -a 1 -x {2.1 3.0 6 ------- null}
d -t 0.223688 -s 0 -d 8 -p ack -e 40 -c 1 -i 27 -a 1 -x {2.1 3.0 6 ------- null}
r -t 0.22444 -s 8 -d 1 -p ack -e 40 -c 0 -i 22 -a 0 -x {2.0 1.0 4 ------- null}
h -t 0.22444 -s 1 -d 8 -p tcp -e 1040 -c 0 -i 32 -a 0 -x {1.0 2.0 9 ------- null}
h -t 0.22444 -s 1 -d 8 -p tcp -e 1040 -c 0 -i 33 -a 0 -x {1.0 2.0 10 ------- null}
r -t 0.224856 -s 8 -d 3 -p ack -e 40 -c 1 -i 23 -a 1 -x {2.1 3.0 4 ------- null}
h -t 0.224856 -s 3 -d 8 -p tcp -e 1040 -c 1 -i 34 -a 1 -x {3.0 2.1 9 ------- null}
h -t 0.224856 -s 3 -d 8 -p tcp -e 1040 -c 1 -i 35 -a 1 -x {3.0 2.1 10 ------- null}
r -t 0.228856 -s 8 -d 1 -p ack -e 40 -c 0 -i 24 -a 0 -x {2.0 1.0 5 ------- null}
h -t 0.228856 -s 1 -d 8 -p tcp -e 1040 -c 0 -i 36 -a 0 -x {1.0 2.0 11 ------- null}
h -t 0.228856 -s 1 -d 8 -p tcp -e 1040 -c 0 -i 37 -a 0 -x {1.0 2.0 12 ------- null}
r -t 0.229272 -s 8 -d 3 -p ack -e 40 -c 1 -i 25 -a 1 -x {2.1 3.0 5 ------- null}
h -t 0.229272 -s 3 -d 8 -p tcp -e 1040 -c 1 -i 38 -a 1 -x {3.0 2.1 11 ------- null}
h -t 0.229272 -s 3 -d 8 -p tcp -e 1040 -c 1 -i 39 -a 1 -x {3.0 2.1 12 ------- null}
+ -t 0.230024 -s 1 -d 8 -p tcp -e 1040 -c 0 -i 28 -a 0 -x {1.0 2.0 7 ------- null}
- -t 0.230024 -s 1 -d 8 -p tcp -e 1040 -c 0 -i 28 -a 0 -x {1.0 2.0 7 ------- null}
h -t 0.230024 -s 1 -d 8 -p tcp -e 1040 -c 0 -i 28 -a 0 -x {1.0 2.0 -1 ------- null}
+ -t 0.230024 -s 1 -d 8 -p tcp -e 1040 -c 0 -i 29 -a 0 -x {1.0 2.0 8 ------- null}
d -t 0.230028 -s 7 -d 8 -p tcp -e 1040 -c 0 -i 28 -a 0 -x {1.0 2.0 7 ------- null}
d -t 0.230028 -s 6 -d 8 -p tcp -e 1040 -c 0 -i 28 -a 0 -x {1.0 2.0 7 ------- null}
d -t 0.230028 -s 5 -d 8 -p tcp -e 1040 -c 0 -i 28 -a 0 -x {1.0 2.0 7 ------- null}
d -t 0.230028 -s 4 -d 8 -p tcp -e 1040 -c 0 -i 28 -a 0 -x {1.0 2.0 7 ------- null}
d -t 0.230028 -s 3 -d 8 -p tcp -e 1040 -c 0 -i 28 -a 0 -x {1.0 2.0 7 ------- null}
d -t 0.230028 -s 0 -d 8 -p tcp -e 1040 -c 0 -i 28 -a 0 -x {1.0 2.0 7 ------- null}
+ -t 0.23044 -s 3 -d 8 -p tcp -e 1040 -c 1 -i 30 -a 1 -x {3.0 2.1 7 ------- null}
- -t 0.23044 -s 3 -d 8 -p tcp -e 1040 -c 1 -i 30 -a 1 -x {3.0 2.1 7 ------- null}
h -t 0.23044 -s 3 -d 8 -p tcp -e 1040 -c 1 -i 30 -a 1 -x {3.0 2.1 -1 ------- null}
+ -t 0.23044 -s 3 -d 8 -p tcp -e 1040 -c 1 -i 31 -a 1 -x {3.0 2.1 8 ------- null}
d -t 0.230444 -s 7 -d 8 -p tcp -e 1040 -c 1 -i 30 -a 1 -x {3.0 2.1 7 ------- null}
d -t 0.230444 -s 6 -d 8 -p tcp -e 1040 -c 1 -i 30 -a 1 -x {3.0 2.1 7 ------- null}
d -t 0.230444 -s 5 -d 8 -p tcp -e 1040 -c 1 -i 30 -a 1 -x {3.0 2.1 7 ------- null}
d -t 0.230444 -s 4 -d 8 -p tcp -e 1040 -c 1 -i 30 -a 1 -x {3.0 2.1 7 ------- null}
d -t 0.230444 -s 1 -d 8 -p tcp -e 1040 -c 1 -i 30 -a 1 -x {3.0 2.1 7 ------- null}
d -t 0.230444 -s 0 -d 8 -p tcp -e 1040 -c 1 -i 30 -a 1 -x {3.0 2.1 7 ------- null}
r -t 0.233272 -s 8 -d 1 -p ack -e 40 -c 0 -i 26 -a 0 -x {2.0 1.0 6 ------- null}
h -t 0.233272 -s 1 -d 8 -p tcp -e 1040 -c 0 -i 40 -a 0 -x {1.0 2.0 13 ------- null}
h -t 0.233272 -s 1 -d 8 -p tcp -e 1040 -c 0 -i 41 -a 0 -x {1.0 2.0 14 ------- null}
r -t 0.233688 -s 8 -d 3 -p ack -e 40 -c 1 -i 27 -a 1 -x {2.1 3.0 6 ------- null}
h -t 0.233688 -s 3 -d 8 -p tcp -e 1040 -c 1 -i 42 -a 1 -x {3.0 2.1 13 ------- null}
h -t 0.233688 -s 3 -d 8 -p tcp -e 1040 -c 1 -i 43 -a 1 -x {3.0 2.1 14 ------- null}
+ -t 0.23444 -s 1 -d 8 -p tcp -e 1040 -c 0 -i 32 -a 0 -x {1.0 2.0 9 ------- null}
+ -t 0.23444 -s 1 -d 8 -p tcp -e 1040 -c 0 -i 33 -a 0 -x {1.0 2.0 10 ------- null}
- -t 0.23444 -s 1 -d 8 -p tcp -e 1040 -c 0 -i 29 -a 0 -x {1.0 2.0 8 ------- null}
h -t 0.23444 -s 1 -d 8 -p tcp -e 1040 -c 0 -i 29 -a 0 -x {1.0 2.0 -1 ------- null}
d -t 0.234444 -s 7 -d 8 -p tcp -e 1040 -c 0 -i 29 -a 0 -x {1.0 2.0 8 ------- null}
d -t 0.234444 -s 6 -d 8 -p tcp -e 1040 -c 0 -i 29 -a 0 -x {1.0 2.0 8 ------- null}
d -t 0.234444 -s 5 -d 8 -p tcp -e 1040 -c 0 -i 29 -a 0 -x {1.0 2.0 8 ------- null}
d -t 0.234444 -s 4 -d 8 -p tcp -e 1040 -c 0 -i 29 -a 0 -x {1.0 2.0 8 ------- null}
d -t 0.234444 -s 3 -d 8 -p tcp -e 1040 -c 0 -i 29 -a 0 -x {1.0 2.0 8 ------- null}
d -t 0.234444 -s 0 -d 8 -p tcp -e 1040 -c 0 -i 29 -a 0 -x {1.0 2.0 8 ------- null}
+ -t 0.234856 -s 3 -d 8 -p tcp -e 1040 -c 1 -i 34 -a 1 -x {3.0 2.1 9 ------- null}
+ -t 0.234856 -s 3 -d 8 -p tcp -e 1040 -c 1 -i 35 -a 1 -x {3.0 2.1 10 ------- null}
- -t 0.234856 -s 3 -d 8 -p tcp -e 1040 -c 1 -i 31 -a 1 -x {3.0 2.1 8 ------- null}